
TITLE     = "DG2D to Tecplot"
VARIABLES = "X"
"Y"
"RHO"
"U"
"V"
"VELOCITY_MAG"
"P"
"T"
"THETA1"
"THETA2"
ZONE T="ZONE 1"
STRANDID=0
ZONETYPE=FEQuadrilateral
DATAPACKING=BLOCK
VARLOCATION=([3-10]=CELLCENTERED)
DT=(SINGLE SINGLE SINGLE SINGLE SINGLE SINGLE SINGLE SINGLE SINGLE SINGLE)

Nodes=2626, Elements=5000
0 1.08304e-16 1.05855e-16 -1.05827e-15 
-3.88578e-16 -3.88578e-16 -3.88578e-16 -3.88578e-16 -3.88578e-16 
-3.88578e-16 -3.88578e-16 -3.88578e-16 -3.88578e-16 -3.88578e-16 
-3.88578e-16 -3.88578e-16 -3.88578e-16 -3.88578e-16 -3.88578e-16 
-3.88578e-16 -3.88578e-16 -3.88578e-16 -3.88578e-16 -3.88578e-16 
-3.88578e-16 -3.88578e-16 -3.88578e-16 -3.88578e-16 -0.000628215 
-0.00125581 -0.00188217 -0.00250666 -0.00312869 -0.00374763 
-0.00436286 -0.0049738 -0.00557982 -0.00618034 -0.00677476 
-0.00736249 -0.00794296 -0.00851559 -0.00907981 -0.00963507 
-0.0101808 -0.0107165 -0.0112417 -0.0117557 -0.0122581 
-0.0127485 -0.0132262 -0.0136909 -0.0141421 -0.0145794 
-0.0150022 -0.0154103 -0.0158031 -0.0161803 -0.0165416 
-0.0168866 -0.0172148 -0.0175261 -0.0178201 -0.0180965 
-0.0183551 -0.0185955 -0.0188176 -0.0190211 -0.0192059 
-0.0193717 -0.0195183 -0.0196457 -0.0197538 -0.0198423 
-0.0199112 -0.0199605 -0.0199901 -0.02 -0.0199901 
-0.0199605 -0.0199112 -0.0198423 -0.0197538 -0.0196457 
-0.0195183 -0.0193717 -0.0192059 -0.0190211 -0.0188176 
-0.0185955 -0.0183551 -0.0180965 -0.0178201 -0.0175261 
-0.0172148 -0.0168866 -0.0165416 -0.0161803 -0.0158031 
-0.0154103 -0.0150022 -0.0145794 -0.0141421 -0.0136909 
-0.0132262 -0.0127485 -0.0122581 -0.0117557 -0.0112417 
-0.0107165 -0.0101808 -0.00963507 -0.00907981 -0.00851559 
-0.00794296 -0.00736249 -0.00677476 -0.00618034 -0.00557982 
-0.0049738 -0.00436286 -0.00374763 -0.00312869 -0.00250666 
-0.00188217 -0.00125581 -0.000628215 -3.88578e-16 -3.88578e-16 
-3.88578e-16 -3.88578e-16 -3.88578e-16 -3.88578e-16 -3.88578e-16 
-3.88578e-16 -3.88578e-16 -3.88578e-16 -3.88578e-16 -3.88578e-16 
-3.88578e-16 -3.88578e-16 -3.88578e-16 -3.88578e-16 -3.88578e-16 
-3.88578e-16 -3.88578e-16 -3.88578e-16 -3.88578e-16 -3.88578e-16 
-3.88578e-16 -3.88578e-16 -0.00150091 -0.00299783 -0.00448685 
-0.00596421 -0.0074263 -0.00886979 -0.0102916 -0.011689 
-0.0130596 -0.0144011 -0.0157118 -0.0169902 -0.018235 
-0.0194453 -0.0206201 -0.0217591 -0.0228618 -0.023928 
-0.0249575 -0.0259503 -0.0269066 -0.0278265 -0.0287101 
-0.0295578 -0.0303699 -0.0311467 -0.0318884 -0.0325956 
-0.0332684 -0.0339073 -0.0345126 -0.0350846 -0.0356238 
-0.0361303 -0.0366046 -0.0370468 -0.0374573 -0.0378364 
-0.0381843 -0.0385011 -0.0387871 -0.0390426 -0.0392676 
-0.0394623 -0.0396268 -0.0397613 -0.0398658 -0.0399404 
-0.0399851 -0.04 -0.0399851 -0.0399404 -0.0398658 
-0.0397613 -0.0396268 -0.0394623 -0.0392676 -0.0390426 
-0.0387871 -0.0385011 -0.0381843 -0.0378364 -0.0374573 
-0.0370468 -0.0366046 -0.0361303 -0.0356238 -0.0350846 
-0.0345126 -0.0339073 -0.0332684 -0.0325956 -0.0318884 
-0.0311467 -0.0303699 -0.0295578 -0.0287101 -0.0278265 
-0.0269066 -0.0259503 -0.0249575 -0.023928 -0.0228618 
-0.0217591 -0.0206201 -0.0194453 -0.018235 -0.0169902 
-0.0157118 -0.0144011 -0.0130596 -0.011689 -0.0102916 
-0.00886979 -0.0074263 -0.00596421 -0.00448685 -0.00299783 
-0.00150091 -0.000636997 -0.00127334 -0.00190838 -0.00254146 
-0.00317193 -0.00379917 -0.00442252 -0.00504137 -0.00565509 
-0.00626306 -0.00686469 -0.00745937 -0.00804652 -0.00862556 
-0.00919593 -0.00975707 -0.0103084 -0.0108495 -0.0113797 
-0.0118985 -0.0124055 -0.0129002 -0.013382 -0.0138506 
-0.0143054 -0.0147461 -0.0151721 -0.0155832 -0.0159788 
-0.0163587 -0.0167224 -0.0170697 -0.0174001 -0.0177133 
-0.0180091 -0.0182872 -0.0185473 -0.0187891 -0.0190125 
-0.0192171 -0.0194029 -0.0195696 -0.0197171 -0.0198451 
-0.0199537 -0.0200427 -0.020112 -0.0201616 -0.0201913 
-0.0202012 -0.0201913 -0.0201616 -0.020112 -0.0200427 
-0.0199537 -0.0198451 -0.0197171 -0.0195696 -0.0194029 
-0.0192171 -0.0190125 -0.0187891 -0.0185473 -0.0182872 
-0.0180091 -0.0177133 -0.0174001 -0.0170697 -0.0167224 
-0.0163587 -0.0159788 -0.0155832 -0.0151721 -0.0147461 
-0.0143054 -0.0138506 -0.013382 -0.0129002 -0.0124055 
-0.0118985 -0.0113797 -0.0108495 -0.0103084 -0.00975707 
-0.00919593 -0.00862556 -0.00804652 -0.00745937 -0.00686469 
-0.00626306 -0.00565509 -0.00504137 -0.00442252 -0.00379917 
-0.00317193 -0.00254146 -0.00190838 -0.00127334 -0.000636997 
-0.000646662 -0.00129263 -0.00193722 -0.00257975 -0.00321953 
-0.0038559 -0.00448819 -0.00511574 -0.00573793 -0.00635411 
-0.00696367 -0.007566 -0.00816051 -0.00874662 -0.00932375 
-0.00989135 -0.0104489 -0.0109958 -0.0115316 -0.0120558 
-0.0125678 -0.0130672 -0.0135535 -0.0140263 -0.0144852 
-0.0149296 -0.0153592 -0.0157735 -0.0161723 -0.0165551 
-0.0169215 -0.0172712 -0.017604 -0.0179194 -0.0182172 
-0.0184971 -0.0187589 -0.0190022 -0.019227 -0.0194329 
-0.0196198 -0.0197875 -0.0199358 -0.0200646 -0.0201738 
-0.0202633 -0.020333 -0.0203829 -0.0204128 -0.0204228 
-0.0204128 -0.0203829 -0.020333 -0.0202633 -0.0201738 
-0.0200646 -0.0199358 -0.0197875 -0.0196198 -0.0194329 
-0.019227 -0.0190022 -0.0187589 -0.0184971 -0.0182172 
-0.0179194 -0.017604 -0.0172712 -0.0169215 -0.0165551 
-0.0161723 -0.0157735 -0.0153592 -0.0149296 -0.0144852 
-0.0140263 -0.0135535 -0.0130672 -0.0125678 -0.0120558 
-0.0115316 -0.0109958 -0.0104489 -0.00989135 -0.00932375 
-0.00874662 -0.00816051 -0.007566 -0.00696367 -0.00635411 
-0.00573793 -0.00511574 -0.00448819 -0.0038559 -0.00321953 
-0.00257975 -0.00193722 -0.00129263 -0.000646662 -0.000657301 
-0.00131387 -0.00196898 -0.0026219 -0.00327192 -0.00391834 
-0.00456046 -0.00519761 -0.00582911 -0.00645433 -0.00707262 
-0.00768337 -0.00828598 -0.00887986 -0.00946444 -0.0100392 
-0.0106035 -0.0111569 -0.0116988 -0.0122288 -0.0127464 
-0.013251 -0.0137423 -0.0142198 -0.014683 -0.0151315 
-0.015565 -0.015983 -0.0163852 -0.0167712 -0.0171406 
-0.0174931 -0.0178284 -0.0181462 -0.0184462 -0.0187281 
-0.0189918 -0.0192368 -0.0194631 -0.0196704 -0.0198585 
-0.0200273 -0.0201766 -0.0203062 -0.0204161 -0.0205062 
-0.0205763 -0.0206264 -0.0206565 -0.0206666 -0.0206565 
-0.0206264 -0.0205763 -0.0205062 -0.0204161 -0.0203062 
-0.0201766 -0.0200273 -0.0198585 -0.0196704 -0.0194631 
-0.0192368 -0.0189918 -0.0187281 -0.0184462 -0.0181462 
-0.0178284 -0.0174931 -0.0171406 -0.0167712 -0.0163852 
-0.015983 -0.015565 -0.0151315 -0.014683 -0.0142198 
-0.0137423 -0.013251 -0.0127464 -0.0122288 -0.0116988 
-0.0111569 -0.0106035 -0.0100392 -0.00946444 -0.00887986 
-0.00828598 -0.00768337 -0.00707262 -0.00645433 -0.00582911 
-0.00519761 -0.00456046 -0.00391834 -0.00327192 -0.0026219 
-0.00196898 -0.00131387 -0.000657301 -0.000669011 -0.00133725 
-0.00200393 -0.0026683 -0.00332959 -0.00398707 -0.00464002 
-0.00528772 -0.00592948 -0.00656464 -0.00719254 -0.00781256 
-0.00842409 -0.00902652 -0.00961929 -0.0102018 -0.0107736 
-0.0113341 -0.0118828 -0.0124193 -0.0129429 -0.0134533 
-0.0139501 -0.0144327 -0.0149007 -0.0153539 -0.0157916 
-0.0162136 -0.0166196 -0.017009 -0.0173817 -0.0177373 
-0.0180754 -0.0183958 -0.0186983 -0.0189824 -0.0192481 
-0.019495 -0.019723 -0.0199318 -0.0201212 -0.0202912 
-0.0204416 -0.0205721 -0.0206828 -0.0207735 -0.0208441 
-0.0208945 -0.0209248 -0.0209349 -0.0209248 -0.0208945 
-0.0208441 -0.0207735 -0.0206828 -0.0205721 -0.0204416 
-0.0202912 -0.0201212 -0.0199318 -0.019723 -0.019495 
-0.0192481 -0.0189824 -0.0186983 -0.0183958 -0.0180754 
-0.0177373 -0.0173817 -0.017009 -0.0166196 -0.0162136 
-0.0157916 -0.0153539 -0.0149007 -0.0144327 -0.0139501 
-0.0134533 -0.0129429 -0.0124193 -0.0118828 -0.0113341 
-0.0107736 -0.0102018 -0.00961929 -0.00902652 -0.00842409 
-0.00781256 -0.00719254 -0.00656464 -0.00592948 -0.00528772 
-0.00464002 -0.00398707 -0.00332959 -0.0026683 -0.00200393 
-0.00133725 -0.000669011 -0.000681901 -0.00136297 -0.0020424 
-0.00271936 -0.00339307 -0.00406273 -0.00472758 -0.0053869 
-0.00603995 -0.00668606 -0.00732454 -0.00795476 -0.0085761 
-0.00918795 -0.00978974 -0.0103809 -0.0109609 -0.0115293 
-0.0120854 -0.0126289 -0.0131593 -0.013676 -0.0141788 
-0.014667 -0.0151404 -0.0155985 -0.016041 -0.0164675 
-0.0168775 -0.0172708 -0.0176471 -0.0180061 -0.0183473 
-0.0186706 -0.0189757 -0.0192623 -0.0195302 -0.0197792 
-0.020009 -0.0202195 -0.0204105 -0.0205818 -0.0207333 
-0.0208648 -0.0209763 -0.0210677 -0.0211388 -0.0211896 
-0.0212202 -0.0212303 -0.0212202 -0.0211896 -0.0211388 
-0.0210677 -0.0209763 -0.0208648 -0.0207333 -0.0205818 
-0.0204105 -0.0202195 -0.020009 -0.0197792 -0.0195302 
-0.0192623 -0.0189757 -0.0186706 -0.0183473 -0.0180061 
-0.0176471 -0.0172708 -0.0168775 -0.0164675 -0.016041 
-0.0155985 -0.0151404 -0.014667 -0.0141788 -0.013676 
-0.0131593 -0.0126289 -0.0120854 -0.0115293 -0.0109609 
-0.0103809 -0.00978974 -0.00918795 -0.0085761 -0.00795476 
-0.00732454 -0.00668606 -0.00603995 -0.0053869 -0.00472758 
-0.00406273 -0.00339307 -0.00271936 -0.0020424 -0.00136297 
-0.000681901 -0.000696088 -0.00139129 -0.00208474 -0.00277557 
-0.00346293 -0.004146 -0.00482397 -0.00549607 -0.00616155 
-0.0068197 -0.00746983 -0.00811128 -0.00874341 -0.00936563 
-0.00997735 -0.010578 -0.0111671 -0.011744 -0.0123084 
-0.0128597 -0.0133974 -0.0139212 -0.0144305 -0.014925 
-0.0154042 -0.0158679 -0.0163155 -0.0167468 -0.0171614 
-0.017559 -0.0179393 -0.0183019 -0.0186466 -0.0189731 
-0.0192811 -0.0195704 -0.0198407 -0.020092 -0.0203238 
-0.0205362 -0.0207288 -0.0209015 -0.0210543 -0.021187 
-0.0212994 -0.0213915 -0.0214632 -0.0215144 -0.0215452 
-0.0215555 -0.0215452 -0.0215144 -0.0214632 -0.0213915 
-0.0212994 -0.021187 -0.0210543 -0.0209015 -0.0207288 
-0.0205362 -0.0203238 -0.020092 -0.0198407 -0.0195704 
-0.0192811 -0.0189731 -0.0186466 -0.0183019 -0.0179393 
-0.017559 -0.0171614 -0.0167468 -0.0163155 -0.0158679 
-0.0154042 -0.014925 -0.0144305 -0.0139212 -0.0133974 
-0.0128597 -0.0123084 -0.011744 -0.0111671 -0.010578 
-0.00997735 -0.00936563 -0.00874341 -0.00811128 -0.00746983 
-0.0068197 -0.00616155 -0.00549607 -0.00482397 -0.004146 
-0.00346293 -0.00277557 -0.00208474 -0.00139129 -0.000696088 
-0.000711704 -0.00142247 -0.00213135 -0.00283744 -0.00353983 
-0.00423765 -0.00493006 -0.00561623 -0.00629539 -0.0069668 
-0.00762975 -0.00828355 -0.00892758 -0.0095612 -0.0101838 
-0.010795 -0.011394 -0.0119804 -0.0125538 -0.0131137 
-0.0136595 -0.014191 -0.0147075 -0.0152089 -0.0156946 
-0.0161643 -0.0166177 -0.0170543 -0.017474 -0.0178762 
-0.0182609 -0.0186275 -0.018976 -0.019306 -0.0196172 
-0.0199095 -0.0201826 -0.0204363 -0.0206704 -0.0208847 
-0.0210792 -0.0212535 -0.0214077 -0.0215415 -0.021655 
-0.0217479 -0.0218202 -0.021872 -0.021903 -0.0219134 
-0.021903 -0.021872 -0.0218202 -0.0217479 -0.021655 
-0.0215415 -0.0214077 -0.0212535 -0.0210792 -0.0208847 
-0.0206704 -0.0204363 -0.0201826 -0.0199095 -0.0196172 
-0.019306 -0.018976 -0.0186275 -0.0182609 -0.0178762 
-0.017474 -0.0170543 -0.0166177 -0.0161643 -0.0156946 
-0.0152089 -0.0147075 -0.014191 -0.0136595 -0.0131137 
-0.0125538 -0.0119804 -0.011394 -0.010795 -0.0101838 
-0.0095612 -0.00892758 -0.00828355 -0.00762975 -0.0069668 
-0.00629539 -0.00561623 -0.00493006 -0.00423765 -0.00353983 
-0.00283744 -0.00213135 -0.00142247 -0.000711704 -0.000728892 
-0.00145678 -0.00218265 -0.00290554 -0.00362448 -0.00433854 
-0.00504683 -0.00574849 -0.00644271 -0.00712871 -0.00780577 
-0.00847318 -0.00913028 -0.00977647 -0.0104111 -0.0110337 
-0.0116438 -0.0122407 -0.012824 -0.0133932 -0.013948 
-0.0144879 -0.0150125 -0.0155214 -0.0160142 -0.0164906 
-0.0169503 -0.0173928 -0.017818 -0.0182254 -0.0186148 
-0.0189859 -0.0193386 -0.0196724 -0.0199872 -0.0202827 
-0.0205588 -0.0208152 -0.0210518 -0.0212684 -0.0214648 
-0.021641 -0.0217967 -0.0219318 -0.0220464 -0.0221402 
-0.0222133 -0.0222655 -0.0222968 -0.0223073 -0.0222968 
-0.0222655 -0.0222133 -0.0221402 -0.0220464 -0.0219318 
-0.0217967 -0.021641 -0.0214648 -0.0212684 -0.0210518 
-0.0208152 -0.0205588 -0.0202827 -0.0199872 -0.0196724 
-0.0193386 -0.0189859 -0.0186148 -0.0182254 -0.017818 
-0.0173928 -0.0169503 -0.0164906 -0.0160142 -0.0155214 
-0.0150125 -0.0144879 -0.013948 -0.0133932 -0.012824 
-0.0122407 -0.0116438 -0.0110337 -0.0104111 -0.00977647 
-0.00913028 -0.00847318 -0.00780577 -0.00712871 -0.00644271 
-0.00574849 -0.00504683 -0.00433854 -0.00362448 -0.00290554 
-0.00218265 -0.00145678 -0.000728892 -0.000747811 -0.00149454 
-0.00223912 -0.00298049 -0.00371764 -0.00444958 -0.00517535 
-0.00589407 -0.00660486 -0.00730693 -0.00799951 -0.00868189 
-0.0093534 -0.0100134 -0.0106613 -0.0112966 -0.0119187 
-0.0125271 -0.0131213 -0.013701 -0.0142656 -0.0148148 
-0.0153482 -0.0158654 -0.016366 -0.0168498 -0.0173163 
-0.0177654 -0.0181966 -0.0186097 -0.0190044 -0.0193805 
-0.0197376 -0.0200757 -0.0203944 -0.0206935 -0.0209729 
-0.0212323 -0.0214717 -0.0216907 -0.0218893 -0.0220674 
-0.0222248 -0.0223614 -0.0224772 -0.022572 -0.0226459 
-0.0226986 -0.0227303 -0.0227408 -0.0227303 -0.0226986 
-0.0226459 -0.022572 -0.0224772 -0.0223614 -0.0222248 
-0.0220674 -0.0218893 -0.0216907 -0.0214717 -0.0212323 
-0.0209729 -0.0206935 -0.0203944 -0.0200757 -0.0197376 
-0.0193805 -0.0190044 -0.0186097 -0.0181966 -0.0177654 
-0.0173163 -0.0168498 -0.016366 -0.0158654 -0.0153482 
-0.0148148 -0.0142656 -0.013701 -0.0131213 -0.0125271 
-0.0119187 -0.0112966 -0.0106613 -0.0100134 -0.0093534 
-0.00868189 -0.00799951 -0.00730693 -0.00660486 -0.00589407 
-0.00517535 -0.00444958 -0.00371764 -0.00298049 -0.00223912 
-0.00149454 -0.000747811 -0.000768635 -0.00153611 -0.00230127 
-0.003063 -0.00382019 -0.0045718 -0.00531683 -0.0060543 
-0.00678334 -0.00750309 -0.00821277 -0.00891163 -0.00959899 
-0.0102742 -0.0109367 -0.0115859 -0.0122213 -0.0128423 
-0.0134486 -0.0140397 -0.0146151 -0.0151746 -0.0157177 
-0.016244 -0.0167533 -0.0172451 -0.0177193 -0.0181754 
-0.0186133 -0.0190327 -0.0194332 -0.0198147 -0.0201769 
-0.0205196 -0.0208426 -0.0211457 -0.0214287 -0.0216915 
-0.0219338 -0.0221555 -0.0223566 -0.0225368 -0.0226961 
-0.0228343 -0.0229514 -0.0230473 -0.023122 -0.0231754 
-0.0232074 -0.0232181 -0.0232074 -0.0231754 -0.023122 
-0.0230473 -0.0229514 -0.0228343 -0.0226961 -0.0225368 
-0.0223566 -0.0221555 -0.0219338 -0.0216915 -0.0214287 
-0.0211457 -0.0208426 -0.0205196 -0.0201769 -0.0198147 
-0.0194332 -0.0190327 -0.0186133 -0.0181754 -0.0177193 
-0.0172451 -0.0167533 -0.016244 -0.0157177 -0.0151746 
-0.0146151 -0.0140397 -0.0134486 -0.0128423 -0.0122213 
-0.0115859 -0.0109367 -0.0102742 -0.00959899 -0.00891163 
-0.00821277 -0.00750309 -0.00678334 -0.0060543 -0.00531683 
-0.0045718 -0.00382019 -0.003063 -0.00230127 -0.00153611 
-0.000768635 -0.000791555 -0.00158186 -0.00236968 -0.00315381 
-0.00393307 -0.00470633 -0.00547254 -0.00623068 -0.00697979 
-0.00771901 -0.00844749 -0.0091645 -0.00986931 -0.0105613 
-0.0112398 -0.0119043 -0.0125543 -0.0131893 -0.0138088 
-0.0144125 -0.0149999 -0.0155706 -0.0161243 -0.0166607 
-0.0171795 -0.0176803 -0.0181628 -0.0186268 -0.0190721 
-0.0194983 -0.0199052 -0.0202927 -0.0206604 -0.0210082 
-0.021336 -0.0216434 -0.0219304 -0.0221968 -0.0224424 
-0.0226672 -0.0228709 -0.0230534 -0.0232148 -0.0233548 
-0.0234734 -0.0235705 -0.0236461 -0.0237001 -0.0237326 
-0.0237434 -0.0237326 -0.0237001 -0.0236461 -0.0235705 
-0.0234734 -0.0233548 -0.0232148 -0.0230534 -0.0228709 
-0.0226672 -0.0224424 -0.0221968 -0.0219304 -0.0216434 
-0.021336 -0.0210082 -0.0206604 -0.0202927 -0.0199052 
-0.0194983 -0.0190721 -0.0186268 -0.0181628 -0.0176803 
-0.0171795 -0.0166607 -0.0161243 -0.0155706 -0.0149999 
-0.0144125 -0.0138088 -0.0131893 -0.0125543 -0.0119043 
-0.0112398 -0.0105613 -0.00986931 -0.0091645 -0.00844749 
-0.00771901 -0.00697979 -0.00623068 -0.00547254 -0.00470633 
-0.00393307 -0.00315381 -0.00236968 -0.00158186 -0.000791555 
-0.000816784 -0.00163222 -0.00244498 -0.00325376 -0.00405731 
-0.00485441 -0.00564394 -0.00642481 -0.00719603 -0.00795666 
-0.00870586 -0.00944283 -0.0101668 -0.0108772 -0.0115734 
-0.0122548 -0.0129209 -0.0135712 -0.0142053 -0.0148228 
-0.0154233 -0.0160065 -0.016572 -0.0171194 -0.0176486 
-0.0181592 -0.018651 -0.0191236 -0.019577 -0.0200107 
-0.0204247 -0.0208188 -0.0211926 -0.0215461 -0.021879 
-0.0221913 -0.0224827 -0.0227531 -0.0230023 -0.0232303 
-0.023437 -0.0236221 -0.0237857 -0.0239277 -0.0240479 
-0.0241463 -0.024223 -0.0242777 -0.0243106 -0.0243216 
-0.0243106 -0.0242777 -0.024223 -0.0241463 -0.0240479 
-0.0239277 -0.0237857 -0.0236221 -0.023437 -0.0232303 
-0.0230023 -0.0227531 -0.0224827 -0.0221913 -0.021879 
-0.0215461 -0.0211926 -0.0208188 -0.0204247 -0.0200107 
-0.019577 -0.0191236 -0.018651 -0.0181592 -0.0176486 
-0.0171194 -0.016572 -0.0160065 -0.0154233 -0.0148228 
-0.0142053 -0.0135712 -0.0129209 -0.0122548 -0.0115734 
-0.0108772 -0.0101668 -0.00944283 -0.00870586 -0.00795666 
-0.00719603 -0.00642481 -0.00564394 -0.00485441 -0.00405731 
-0.00325376 -0.00244498 -0.00163222 -0.000816784 -0.000844553 
-0.00168765 -0.00252786 -0.00336378 -0.00419406 -0.0050174 
-0.00583259 -0.00663849 -0.00743403 -0.00821825 -0.00899024 
-0.00974918 -0.0104943 -0.011225 -0.0119406 -0.0126406 
-0.0133244 -0.0139916 -0.0146418 -0.0152745 -0.0158895 
-0.0164863 -0.0170647 -0.0176243 -0.018165 -0.0186864 
-0.0191883 -0.0196705 -0.0201327 -0.0205748 -0.0209966 
-0.0213978 -0.0217784 -0.0221381 -0.0224768 -0.0227943 
-0.0230905 -0.0233653 -0.0236186 -0.0238502 -0.02406 
-0.024248 -0.0244141 -0.0245582 -0.0246803 -0.0247802 
-0.0248579 -0.0249135 -0.0249468 -0.024958 -0.0249468 
-0.0249135 -0.0248579 -0.0247802 -0.0246803 -0.0245582 
-0.0244141 -0.024248 -0.02406 -0.0238502 -0.0236186 
-0.0233653 -0.0230905 -0.0227943 -0.0224768 -0.0221381 
-0.0217784 -0.0213978 -0.0209966 -0.0205748 -0.0201327 
-0.0196705 -0.0191883 -0.0186864 -0.018165 -0.0176243 
-0.0170647 -0.0164863 -0.0158895 -0.0152745 -0.0146418 
-0.0139916 -0.0133244 -0.0126406 -0.0119406 -0.011225 
-0.0104943 -0.00974918 -0.00899024 -0.00821825 -0.00743403 
-0.00663849 -0.00583259 -0.0050174 -0.00419406 -0.00336378 
-0.00252786 -0.00168765 -0.000844553 -0.000875119 -0.00174867 
-0.00261909 -0.00348488 -0.00434458 -0.0051968 -0.00604024 
-0.00687368 -0.007696 -0.00850617 -0.00930325 -0.0100864 
-0.0108548 -0.0116078 -0.0123448 -0.0130652 -0.0137686 
-0.0144543 -0.0151222 -0.0157717 -0.0164025 -0.0170144 
-0.017607 -0.01818 -0.0187333 -0.0192666 -0.0197797 
-0.0202724 -0.0207444 -0.0211957 -0.021626 -0.0220352 
-0.0224231 -0.0227897 -0.0231347 -0.023458 -0.0237595 
-0.0240392 -0.0242969 -0.0245324 -0.0247459 -0.024937 
-0.0251058 -0.0252523 -0.0253763 -0.0254778 -0.0255568 
-0.0256133 -0.0256472 -0.0256584 -0.0256472 -0.0256133 
-0.0255568 -0.0254778 -0.0253763 -0.0252523 -0.0251058 
-0.024937 -0.0247459 -0.0245324 -0.0242969 -0.0240392 
-0.0237595 -0.023458 -0.0231347 -0.0227897 -0.0224231 
-0.0220352 -0.021626 -0.0211957 -0.0207444 -0.0202724 
-0.0197797 -0.0192666 -0.0187333 -0.01818 -0.017607 
-0.0170144 -0.0164025 -0.0157717 -0.0151222 -0.0144543 
-0.0137686 -0.0130652 -0.0123448 -0.0116078 -0.0108548 
-0.0100864 -0.00930325 -0.00850617 -0.007696 -0.00687368 
-0.00604024 -0.0051968 -0.00434458 -0.00348488 -0.00261909 
-0.00174867 -0.000875119 -0.000908762 -0.00181582 -0.0027195 
-0.00361817 -0.00451026 -0.00539427 -0.0062688 -0.00713256 
-0.00798436 -0.00882309 -0.00964778 -0.0104575 -0.0112516 
-0.0120292 -0.0127897 -0.0135326 -0.0142574 -0.0149637 
-0.0156509 -0.0163189 -0.0169672 -0.0175956 -0.0182039 
-0.0187917 -0.0193589 -0.0199053 -0.0204307 -0.0209349 
-0.0214177 -0.0218791 -0.0223188 -0.0227368 -0.0231328 
-0.0235069 -0.0238588 -0.0241885 -0.024496 -0.024781 
-0.0250435 -0.0252834 -0.0255007 -0.0256953 -0.0258672 
-0.0260162 -0.0261424 -0.0262457 -0.0263261 -0.0263835 
-0.026418 -0.0264295 -0.026418 -0.0263835 -0.0263261 
-0.0262457 -0.0261424 -0.0260162 -0.0258672 -0.0256953 
-0.0255007 -0.0252834 -0.0250435 -0.024781 -0.024496 
-0.0241885 -0.0238588 -0.0235069 -0.0231328 -0.0227368 
-0.0223188 -0.0218791 -0.0214177 -0.0209349 -0.0204307 
-0.0199053 -0.0193589 -0.0187917 -0.0182039 -0.0175956 
-0.0169672 -0.0163189 -0.0156509 -0.0149637 -0.0142574 
-0.0135326 -0.0127897 -0.0120292 -0.0112516 -0.0104575 
-0.00964778 -0.00882309 -0.00798436 -0.00713256 -0.0062688 
-0.00539427 -0.00451026 -0.00361817 -0.0027195 -0.00181582 
-0.000908762 -0.000945793 -0.00188974 -0.00283003 -0.00376489 
-0.00469262 -0.00561161 -0.00652038 -0.00741751 -0.00830174 
-0.00917192 -0.010027 -0.0108661 -0.0116883 -0.012493 
-0.0132794 -0.0140471 -0.0147955 -0.0155243 -0.0162329 
-0.0169212 -0.0175888 -0.0182355 -0.0188609 -0.019465 
-0.0200475 -0.0206083 -0.0211472 -0.0216641 -0.0221588 
-0.0226313 -0.0230814 -0.023509 -0.023914 -0.0242963 
-0.0246559 -0.0249927 -0.0253065 -0.0255974 -0.0258653 
-0.02611 -0.0263316 -0.02653 -0.0267052 -0.0268571 
-0.0269857 -0.0270909 -0.0271728 -0.0272313 -0.0272664 
-0.0272781 -0.0272664 -0.0272313 -0.0271728 -0.0270909 
-0.0269857 -0.0268571 -0.0267052 -0.02653 -0.0263316 
-0.02611 -0.0258653 -0.0255974 -0.0253065 -0.0249927 
-0.0246559 -0.0242963 -0.023914 -0.023509 -0.0230814 
-0.0226313 -0.0221588 -0.0216641 -0.0211472 -0.0206083 
-0.0200475 -0.019465 -0.0188609 -0.0182355 -0.0175888 
-0.0169212 -0.0162329 -0.0155243 -0.0147955 -0.0140471 
-0.0132794 -0.012493 -0.0116883 -0.0108661 -0.010027 
-0.00917192 -0.00830174 -0.00741751 -0.00652038 -0.00561161 
-0.00469262 -0.00376489 -0.00283003 -0.00188974 -0.000945793 
-0.000986552 -0.0019711 -0.00295168 -0.00392637 -0.00489334 
-0.00585085 -0.00679728 -0.00773115 -0.00865109 -0.00955588 
-0.0104444 -0.0113157 -0.012169 -0.0130034 -0.0138184 
-0.0146134 -0.0153878 -0.0161413 -0.0168735 -0.0175842 
-0.018273 -0.0189397 -0.0195841 -0.0202061 -0.0208055 
-0.0213821 -0.0219359 -0.0224667 -0.0229746 -0.0234592 
-0.0239207 -0.0243589 -0.0247738 -0.0251652 -0.0255332 
-0.0258777 -0.0261987 -0.0264961 -0.0267698 -0.0270198 
-0.0272462 -0.0274488 -0.0276276 -0.0277827 -0.0279139 
-0.0280213 -0.0281048 -0.0281645 -0.0282003 -0.0282122 
-0.0282003 -0.0281645 -0.0281048 -0.0280213 -0.0279139 
-0.0277827 -0.0276276 -0.0274488 -0.0272462 -0.0270198 
-0.0267698 -0.0264961 -0.0261987 -0.0258777 -0.0255332 
-0.0251652 -0.0247738 -0.0243589 -0.0239207 -0.0234592 
-0.0229746 -0.0224667 -0.0219359 -0.0213821 -0.0208055 
-0.0202061 -0.0195841 -0.0189397 -0.018273 -0.0175842 
-0.0168735 -0.0161413 -0.0153878 -0.0146134 -0.0138184 
-0.0130034 -0.012169 -0.0113157 -0.0104444 -0.00955588 
-0.00865109 -0.00773115 -0.00679728 -0.00585085 -0.00489334 
-0.00392637 -0.00295168 -0.0019711 -0.000986552 -0.00103142 
-0.00206066 -0.00308559 -0.00410412 -0.00511427 -0.00611417 
-0.00710207 -0.00807637 -0.00903561 -0.0099785 -0.0109039 
-0.0118107 -0.0126981 -0.0135653 -0.0144117 -0.0152366 
-0.0160397 -0.0168205 -0.0175787 -0.0183139 -0.019026 
-0.0197148 -0.0203801 -0.0210218 -0.0216397 -0.0222338 
-0.022804 -0.0233502 -0.0238724 -0.0243705 -0.0248446 
-0.0252944 -0.0257201 -0.0261216 -0.0264989 -0.026852 
-0.0271807 -0.0274852 -0.0277654 -0.0280213 -0.0282528 
-0.02846 -0.0286429 -0.0288014 -0.0289355 -0.0290453 
-0.0291306 -0.0291916 -0.0292282 -0.0292404 -0.0292282 
-0.0291916 -0.0291306 -0.0290453 -0.0289355 -0.0288014 
-0.0286429 -0.02846 -0.0282528 -0.0280213 -0.0277654 
-0.0274852 -0.0271807 -0.026852 -0.0264989 -0.0261216 
-0.0257201 -0.0252944 -0.0248446 -0.0243705 -0.0238724 
-0.0233502 -0.022804 -0.0222338 -0.0216397 -0.0210218 
-0.0203801 -0.0197148 -0.019026 -0.0183139 -0.0175787 
-0.0168205 -0.0160397 -0.0152366 -0.0144117 -0.0135653 
-0.0126981 -0.0118107 -0.0109039 -0.0099785 -0.00903561 
-0.00807637 -0.00710207 -0.00611417 -0.00511427 -0.00410412 
-0.00308559 -0.00206066 -0.00103142 -0.0010808 -0.00215923 
-0.00323297 -0.00429977 -0.00535746 -0.00640401 -0.00743755 
-0.00845635 -0.00945885 -0.0104437 -0.0114096 -0.0123555 
-0.0132805 -0.0141838 -0.0150647 -0.0159227 -0.0167573 
-0.0175681 -0.0183548 -0.0191171 -0.0198549 -0.020568 
-0.0212563 -0.0219196 -0.022558 -0.0231713 -0.0237595 
-0.0243227 -0.0248607 -0.0253736 -0.0258615 -0.0263242 
-0.0267618 -0.0271744 -0.0275618 -0.0279243 -0.0282616 
-0.028574 -0.0288613 -0.0291236 -0.0293608 -0.0295731 
-0.0297604 -0.0299227 -0.03006 -0.0301724 -0.0302598 
-0.0303222 -0.0303596 -0.0303721 -0.0303596 -0.0303222 
-0.0302598 -0.0301724 -0.03006 -0.0299227 -0.0297604 
-0.0295731 -0.0293608 -0.0291236 -0.0288613 -0.028574 
-0.0282616 -0.0279243 -0.0275618 -0.0271744 -0.0267618 
-0.0263242 -0.0258615 -0.0253736 -0.0248607 -0.0243227 
-0.0237595 -0.0231713 -0.022558 -0.0219196 -0.0212563 
-0.020568 -0.0198549 -0.0191171 -0.0183548 -0.0175681 
-0.0167573 -0.0159227 -0.0150647 -0.0141838 -0.0132805 
-0.0123555 -0.0114096 -0.0104437 -0.00945885 -0.00845635 
-0.00743755 -0.00640401 -0.00535746 -0.00429977 -0.00323297 
-0.00215923 -0.0010808 -0.00113515 -0.00226773 -0.0033952 
-0.00451511 -0.00562512 -0.00672303 -0.00780681 -0.0088746 
-0.00992471 -0.0109557 -0.0119662 -0.0129551 -0.0139215 
-0.0148645 -0.0157835 -0.0166778 -0.0175471 -0.0183909 
-0.019209 -0.0200012 -0.0207673 -0.0215071 -0.0222207 
-0.0229078 -0.0235687 -0.0242031 -0.0248112 -0.025393 
-0.0259485 -0.0264777 -0.0269807 -0.0274576 -0.0279084 
-0.0283331 -0.0287318 -0.0291045 -0.0294514 -0.0297723 
-0.0300675 -0.0303368 -0.0305804 -0.0307983 -0.0309905 
-0.0311569 -0.0312978 -0.031413 -0.0315026 -0.0315666 
-0.031605 -0.0316178 -0.031605 -0.0315666 -0.0315026 
-0.031413 -0.0312978 -0.0311569 -0.0309905 -0.0307983 
-0.0305804 -0.0303368 -0.0300675 -0.0297723 -0.0294514 
-0.0291045 -0.0287318 -0.0283331 -0.0279084 -0.0274576 
-0.0269807 -0.0264777 -0.0259485 -0.025393 -0.0248112 
-0.0242031 -0.0235687 -0.0229078 -0.0222207 -0.0215071 
-0.0207673 -0.0200012 -0.019209 -0.0183909 -0.0175471 
-0.0166778 -0.0157835 -0.0148645 -0.0139215 -0.0129551 
-0.0119662 -0.0109557 -0.00992471 -0.0088746 -0.00780681 
-0.00672303 -0.00562512 -0.00451511 -0.0033952 -0.00226773 
-0.00113515 -0.00119498 -0.00238715 -0.00357376 -0.00475214 
-0.00591974 -0.00707418 -0.00821325 -0.00933496 -0.0104375 
-0.0115193 -0.0125789 -0.0136151 -0.0146271 -0.0156138 
-0.0165746 -0.017509 -0.0184164 -0.0192966 -0.0201493 
-0.0209743 -0.0217715 -0.0225408 -0.0232821 -0.0239956 
-0.0246812 -0.0253389 -0.0259689 -0.0265711 -0.0271458 
-0.027693 -0.0282127 -0.0287052 -0.0291704 -0.0296085 
-0.0300196 -0.0304037 -0.0307609 -0.0310914 -0.0313951 
-0.0316723 -0.0319228 -0.0321468 -0.0323444 -0.0325155 
-0.0326602 -0.0327785 -0.0328706 -0.0329363 -0.0329757 
-0.0329889 -0.0329757 -0.0329363 -0.0328706 -0.0327785 
-0.0326602 -0.0325155 -0.0323444 -0.0321468 -0.0319228 
-0.0316723 -0.0313951 -0.0310914 -0.0307609 -0.0304037 
-0.0300196 -0.0296085 -0.0291704 -0.0287052 -0.0282127 
-0.027693 -0.0271458 -0.0265711 -0.0259689 -0.0253389 
-0.0246812 -0.0239956 -0.0232821 -0.0225408 -0.0217715 
-0.0209743 -0.0201493 -0.0192966 -0.0184164 -0.017509 
-0.0165746 -0.0156138 -0.0146271 -0.0136151 -0.0125789 
-0.0115193 -0.0104375 -0.00933496 -0.00821325 -0.00707418 
-0.00591974 -0.00475214 -0.00357376 -0.00238715 -0.00119498 
-0.00126083 -0.0025186 -0.00377031 -0.00501304 -0.00624403 
-0.00746069 -0.00866062 -0.00984167 -0.0110019 -0.0121396 
-0.0132532 -0.0143416 -0.0154037 -0.0164385 -0.0174454 
-0.0184238 -0.0193733 -0.0202935 -0.0211843 -0.0220454 
-0.0228768 -0.0236785 -0.0244505 -0.0251929 -0.0259057 
-0.026589 -0.0272431 -0.0278679 -0.0284637 -0.0290306 
-0.0295688 -0.0300784 -0.0305595 -0.0310123 -0.031437 
-0.0318336 -0.0322023 -0.0325433 -0.0328565 -0.0331422 
-0.0334004 -0.0336311 -0.0338346 -0.0340108 -0.0341598 
-0.0342816 -0.0343763 -0.0344439 -0.0344845 -0.034498 
-0.0344845 -0.0344439 -0.0343763 -0.0342816 -0.0341598 
-0.0340108 -0.0338346 -0.0336311 -0.0334004 -0.0331422 
-0.0328565 -0.0325433 -0.0322023 -0.0318336 -0.031437 
-0.0310123 -0.0305595 -0.0300784 -0.0295688 -0.0290306 
-0.0284637 -0.0278679 -0.0272431 -0.026589 -0.0259057 
-0.0251929 -0.0244505 -0.0236785 -0.0228768 -0.0220454 
-0.0211843 -0.0202935 -0.0193733 -0.0184238 -0.0174454 
-0.0164385 -0.0154037 -0.0143416 -0.0132532 -0.0121396 
-0.0110019 -0.00984167 -0.00866062 -0.00746069 -0.00624403 
-0.00501304 -0.00377031 -0.0025186 -0.00126083 -0.00133331 
-0.00266329 -0.00398664 -0.00530021 -0.00660097 -0.00788611 
-0.00915304 -0.0103994 -0.0116231 -0.0128224 -0.0139955 
-0.0151413 -0.0162585 -0.0173463 -0.0184039 -0.0194308 
-0.0204265 -0.0213908 -0.0223235 -0.0232243 -0.0240935 
-0.0249308 -0.0257365 -0.0265107 -0.0272535 -0.027965 
-0.0286456 -0.0292952 -0.0299143 -0.0305029 -0.0310614 
-0.0315898 -0.0320885 -0.0325575 -0.0329971 -0.0334075 
-0.0337889 -0.0341413 -0.034465 -0.0347601 -0.0350267 
-0.0352649 -0.0354749 -0.0356566 -0.0358103 -0.035936 
-0.0360336 -0.0361034 -0.0361452 -0.0361591 -0.0361452 
-0.0361034 -0.0360336 -0.035936 -0.0358103 -0.0356566 
-0.0354749 -0.0352649 -0.0350267 -0.0347601 -0.034465 
-0.0341413 -0.0337889 -0.0334075 -0.0329971 -0.0325575 
-0.0320885 -0.0315898 -0.0310614 -0.0305029 -0.0299143 
-0.0292952 -0.0286456 -0.027965 -0.0272535 -0.0265107 
-0.0257365 -0.0249308 -0.0240935 -0.0232243 -0.0223235 
-0.0213908 -0.0204265 -0.0194308 -0.0184039 -0.0173463 
-0.0162585 -0.0151413 -0.0139955 -0.0128224 -0.0116231 
-0.0103994 -0.00915304 -0.00788611 -0.00660097 -0.00530021 
-0.00398664 -0.00266329 -0.00133331 -0.00141309 -0.00282254 
-0.00422476 -0.00561629 -0.00699386 -0.00835438 -0.00969504 
-0.0110133 -0.0123069 -0.0135739 -0.0148125 -0.0160214 
-0.0171994 -0.0183455 -0.0194589 -0.0205392 -0.0215858 
-0.0225986 -0.0235773 -0.024522 -0.0254326 -0.0263093 
-0.0271521 -0.0279612 -0.028737 -0.0294796 -0.0301893 
-0.0308663 -0.031511 -0.0321235 -0.0327043 -0.0332535 