
TITLE     = "DG2D to Tecplot"
VARIABLES = "X"
"Y"
"RHO"
"U"
"V"
"VELOCITY_MAG"
"P"
"T"
"THETA1"
"THETA2"
ZONE T="ZONE 1"
STRANDID=0
ZONETYPE=FEQuadrilateral
DATAPACKING=BLOCK
VARLOCATION=([3-10]=CELLCENTERED)
DT=(SINGLE SINGLE SINGLE SINGLE SINGLE SINGLE SINGLE SINGLE SINGLE SINGLE)

Nodes=1152, Elements=2176
0.02 0.4 -1.77463e-15 -1.06947e-14 
-1.07881e-14 -1.78819e-15 -0.02 -0.4 0.0228636 
0.0263654 0.0306476 0.0358839 0.0422872 0.0501175 
0.0596926 0.0714015 0.0857197 0.103229 0.124639 
0.150821 0.182838 0.221989 0.269865 0.328409 
0.0199037 0.0196157 0.0191388 0.0184776 0.0176384 
0.0166294 0.0154602 0.0141421 0.0126879 0.0111114 
0.00942793 0.00765367 0.00580569 0.00390181 0.00196034 
-2.2712e-15 -2.27081e-15 -2.27033e-15 -2.26975e-15 -2.26904e-15 
-2.26817e-15 -2.26711e-15 -2.26581e-15 -2.26422e-15 -2.26228e-15 
-2.2599e-15 -2.25699e-15 -2.25344e-15 -2.24909e-15 -2.24378e-15 
-2.23728e-15 0.398074 0.392314 0.382776 0.369552 
0.352769 0.332588 0.309204 0.282843 0.253757 
0.222228 0.188559 0.153073 0.116114 0.0780361 
0.0392069 0.0392069 0.0780361 0.116114 0.153073 
0.188559 0.222228 0.253757 0.282843 0.309204 
0.332588 0.352769 0.369552 0.382776 0.392314 
0.398074 -2.3102e-15 -2.3037e-15 -2.29838e-15 -2.29404e-15 
-2.29048e-15 -2.28757e-15 -2.2852e-15 -2.28325e-15 -2.28166e-15 
-2.28036e-15 -2.2793e-15 -2.27843e-15 -2.27772e-15 -2.27714e-15 
-2.27666e-15 -2.27628e-15 0.00196034 0.00390181 0.00580569 
0.00765367 0.00942793 0.0111114 0.0126879 0.0141421 
0.0154602 0.0166294 0.0176384 0.0184776 0.0191388 
0.0196157 0.0199037 -0.00196034 -0.00390181 -0.00580569 
-0.00765367 -0.00942793 -0.0111114 -0.0126879 -0.0141421 
-0.0154602 -0.0166294 -0.0176384 -0.0184776 -0.0191388 
-0.0196157 -0.0199037 -0.328409 -0.269865 -0.221989 
-0.182838 -0.150821 -0.124639 -0.103229 -0.0857197 
-0.0714015 -0.0596926 -0.0501175 -0.0422872 -0.0358839 
-0.0306476 -0.0263654 -0.0228636 -0.0392069 -0.0780361 
-0.116114 -0.153073 -0.188559 -0.222228 -0.253757 
-0.282843 -0.309204 -0.332588 -0.352769 -0.369552 
-0.382776 -0.392314 -0.398074 -0.398074 -0.392314 
-0.382776 -0.369552 -0.352769 -0.332588 -0.309204 
-0.282843 -0.253757 -0.222228 -0.188559 -0.153073 
-0.116114 -0.0780361 -0.0392069 -0.0199037 -0.0196157 
-0.0191388 -0.0184776 -0.0176384 -0.0166294 -0.0154602 
-0.0141421 -0.0126879 -0.0111114 -0.00942793 -0.00765367 
-0.00580569 -0.00390181 -0.00196034 0.0227535 0.0224243 
0.0218791 0.0211232 0.0201639 0.0190104 0.0176738 
0.016167 0.0145045 0.0127024 0.0107778 0.00874953 
0.00663696 0.00446047 0.00224103 0.0262385 0.0258588 
0.0252301 0.0243585 0.0232522 0.021922 0.0203807 
0.0186432 0.016726 0.0146478 0.0124286 0.0100896 
0.00765348 0.00514364 0.00258426 0.0305 0.0300587 
0.0293279 0.0283146 0.0270287 0.0254825 0.0236909 
0.0216711 0.0194426 0.0170269 0.0144472 0.0117283 
0.00889652 0.00597904 0.00300399 0.0357112 0.0351944 
0.0343388 0.0331524 0.0316468 0.0298364 0.0277387 
0.0253738 0.0227645 0.019936 0.0169156 0.0137322 
0.0104166 0.00700061 0.00351724 0.0420836 0.0414747 
0.0404664 0.0390683 0.037294 0.0351605 0.0326885 
0.0299016 0.0268267 0.0234935 0.0199341 0.0161826 
0.0122753 0.00824983 0.00414487 0.0498761 0.0491545 
0.0479594 0.0463025 0.0441996 0.0416711 0.0387413 
0.0354384 0.0317942 0.0278438 0.0236252 0.0191791 
0.0145483 0.00977743 0.00491237 0.0594052 0.0585456 
0.0571223 0.0551488 0.0526442 0.0496326 0.046143 
0.042209 0.0378686 0.0331634 0.0281389 0.0228434 
0.0173278 0.0116454 0.0058509 0.0710577 0.0700296 
0.068327 0.0659664 0.0629705 0.0593682 0.0551941 
0.0504885 0.0452966 0.0396686 0.0336584 0.0273242 
0.0207268 0.0139297 0.00699857 0.0853069 0.0840726 
0.0820286 0.0791947 0.075598 0.0712733 0.0662622 
0.060613 0.05438 0.0476233 0.040408 0.0328035 
0.0248831 0.0167231 0.008402 0.102732 0.101245 
0.0987836 0.0953708 0.0910395 0.0858315 0.0797968 
0.0729937 0.0654875 0.0573507 0.0486616 0.0395039 
0.0299657 0.0201389 0.0101182 0.124039 0.122244 
0.119272 0.115152 0.109922 0.103634 0.0963475 
0.0881333 0.0790703 0.0692459 0.0587546 0.0476974 
0.0361809 0.0243159 0.0122168 0.150095 0.147923 
0.144327 0.139341 0.133012 0.125403 0.116586 
0.106647 0.09568 0.0837918 0.0710966 0.0577168 
0.0437811 0.0294238 0.0147831 0.181957 0.179324 
0.174965 0.16892 0.161248 0.152024 0.141335 
0.129286 0.115991 0.101579 0.0861891 0.0699689 
0.053075 0.0356699 0.0179212 0.22092 0.217723 
0.21243 0.205091 0.195777 0.184577 0.1716 
0.15697 0.140828 0.12333 0.104645 0.0849514 
0.0644399 0.0433079 0.0217587 0.268565 0.264679 
0.258244 0.249322 0.237999 0.224384 0.208608 
0.190823 0.1712 0.149929 0.127213 0.103273 
0.0783375 0.052648 0.0264513 0.326828 0.322099 
0.314268 0.30341 0.289631 0.273062 0.253864 
0.23222 0.208341 0.182454 0.154811 0.125677 
0.0953321 0.0640694 0.0321897 0.0321897 0.0264513 
0.0217587 0.0179212 0.0147831 0.0122168 0.0101182 
0.008402 0.00699857 0.0058509 0.00491237 0.00414487 
0.00351724 0.00300399 0.00258426 0.00224103 0.0640694 
0.052648 0.0433079 0.0356699 0.0294238 0.0243159 
0.0201389 0.0167231 0.0139297 0.0116454 0.00977743 
0.00824983 0.00700061 0.00597904 0.00514364 0.00446047 
0.0953321 0.0783375 0.0644399 0.053075 0.0437811 
0.0361809 0.0299657 0.0248831 0.0207268 0.0173278 
0.0145483 0.0122753 0.0104166 0.00889652 0.00765348 
0.00663696 0.125677 0.103273 0.0849514 0.0699689 
0.0577168 0.0476974 0.0395039 0.0328035 0.0273242 
0.0228434 0.0191791 0.0161826 0.0137322 0.0117283 
0.0100896 0.00874953 0.154811 0.127213 0.104645 
0.0861891 0.0710966 0.0587546 0.0486616 0.040408 
0.0336584 0.0281389 0.0236252 0.0199341 0.0169156 
0.0144472 0.0124286 0.0107778 0.182454 0.149929 
0.12333 0.101579 0.0837918 0.0692459 0.0573507 
0.0476233 0.0396686 0.0331634 0.0278438 0.0234935 
0.019936 0.0170269 0.0146478 0.0127024 0.208341 
0.1712 0.140828 0.115991 0.09568 0.0790703 
0.0654875 0.05438 0.0452966 0.0378686 0.0317942 
0.0268267 0.0227645 0.0194426 0.016726 0.0145045 
0.23222 0.190823 0.15697 0.129286 0.106647 
0.0881333 0.0729937 0.060613 0.0504885 0.042209 
0.0354384 0.0299016 0.0253738 0.0216711 0.0186432 
0.016167 0.253864 0.208608 0.1716 0.141335 
0.116586 0.0963475 0.0797968 0.0662622 0.0551941 
0.046143 0.0387413 0.0326885 0.0277387 0.0236909 
0.0203807 0.0176738 0.273062 0.224384 0.184577 
0.152024 0.125403 0.103634 0.0858315 0.0712733 
0.0593682 0.0496326 0.0416711 0.0351605 0.0298364 
0.0254825 0.021922 0.0190104 0.289631 0.237999 
0.195777 0.161248 0.133012 0.109922 0.0910395 
0.075598 0.0629705 0.0526442 0.0441996 0.037294 
0.0316468 0.0270287 0.0232522 0.0201639 0.30341 
0.249322 0.205091 0.16892 0.139341 0.115152 
0.0953708 0.0791947 0.0659664 0.0551488 0.0463025 
0.0390683 0.0331524 0.0283146 0.0243585 0.0211232 
0.314268 0.258244 0.21243 0.174965 0.144327 
0.119272 0.0987836 0.0820286 0.068327 0.0571223 
0.0479594 0.0404664 0.0343388 0.0293279 0.0252301 
0.0218791 0.322099 0.264679 0.217723 0.179324 
0.147923 0.122244 0.101245 0.0840726 0.0700296 
0.0585456 0.0491545 0.0414747 0.0351944 0.0300587 
0.0258588 0.0224243 0.326828 0.268565 0.22092 
0.181957 0.150095 0.124039 0.102732 0.0853069 
0.0710577 0.0594052 0.0498761 0.0420836 0.0357112 
0.0305 0.0262385 0.0227535 -0.00224103 -0.00446047 
-0.00663696 -0.00874953 -0.0107778 -0.0127024 -0.0145045 
-0.016167 -0.0176738 -0.0190104 -0.0201639 -0.0211232 
-0.0218791 -0.0224243 -0.0227535 -0.00258426 -0.00514364 
-0.00765348 -0.0100896 -0.0124286 -0.0146478 -0.016726 
-0.0186432 -0.0203807 -0.021922 -0.0232522 -0.0243585 
-0.0252301 -0.0258588 -0.0262385 -0.00300399 -0.00597904 
-0.00889652 -0.0117283 -0.0144472 -0.0170269 -0.0194426 
-0.0216711 -0.0236909 -0.0254825 -0.0270287 -0.0283146 
-0.0293279 -0.0300587 -0.0305 -0.00351724 -0.00700061 
-0.0104166 -0.0137322 -0.0169156 -0.019936 -0.0227645 
-0.0253738 -0.0277387 -0.0298364 -0.0316468 -0.0331524 
-0.0343388 -0.0351944 -0.0357112 -0.00414487 -0.00824983 
-0.0122753 -0.0161826 -0.0199341 -0.0234935 -0.0268267 
-0.0299016 -0.0326885 -0.0351605 -0.037294 -0.0390683 
-0.0404664 -0.0414747 -0.0420836 -0.00491237 -0.00977743 
-0.0145483 -0.0191791 -0.0236252 -0.0278438 -0.0317942 
-0.0354384 -0.0387413 -0.0416711 -0.0441996 -0.0463025 
-0.0479594 -0.0491545 -0.0498761 -0.0058509 -0.0116454 
-0.0173278 -0.0228434 -0.0281389 -0.0331634 -0.0378686 
-0.042209 -0.046143 -0.0496326 -0.0526442 -0.0551488 
-0.0571223 -0.0585456 -0.0594052 -0.00699857 -0.0139297 
-0.0207268 -0.0273242 -0.0336584 -0.0396686 -0.0452966 
-0.0504885 -0.0551941 -0.0593682 -0.0629705 -0.0659664 
-0.068327 -0.0700296 -0.0710577 -0.008402 -0.0167231 
-0.0248831 -0.0328035 -0.040408 -0.0476233 -0.05438 
-0.060613 -0.0662622 -0.0712733 -0.075598 -0.0791947 
-0.0820286 -0.0840726 -0.0853069 -0.0101182 -0.0201389 
-0.0299657 -0.0395039 -0.0486616 -0.0573507 -0.0654875 
-0.0729937 -0.0797968 -0.0858315 -0.0910395 -0.0953708 
-0.0987836 -0.101245 -0.102732 -0.0122168 -0.0243159 
-0.0361809 -0.0476974 -0.0587546 -0.0692459 -0.0790703 
-0.0881333 -0.0963475 -0.103634 -0.109922 -0.115152 
-0.119272 -0.122244 -0.124039 -0.0147831 -0.0294238 
-0.0437811 -0.0577168 -0.0710966 -0.0837918 -0.09568 
-0.106647 -0.116586 -0.125403 -0.133012 -0.139341 
-0.144327 -0.147923 -0.150095 -0.0179212 -0.0356699 
-0.053075 -0.0699689 -0.0861891 -0.101579 -0.115991 
-0.129286 -0.141335 -0.152024 -0.161248 -0.16892 
-0.174965 -0.179324 -0.181957 -0.0217587 -0.0433079 
-0.0644399 -0.0849514 -0.104645 -0.12333 -0.140828 
-0.15697 -0.1716 -0.184577 -0.195777 -0.205091 
-0.21243 -0.217723 -0.22092 -0.0264513 -0.052648 
-0.0783375 -0.103273 -0.127213 -0.149929 -0.1712 
-0.190823 -0.208608 -0.224384 -0.237999 -0.249322 
-0.258244 -0.264679 -0.268565 -0.0321897 -0.0640694 
-0.0953321 -0.125677 -0.154811 -0.182454 -0.208341 
-0.23222 -0.253864 -0.273062 -0.289631 -0.30341 
-0.314268 -0.322099 -0.326828 -0.326828 -0.268565 
-0.22092 -0.181957 -0.150095 -0.124039 -0.102732 
-0.0853069 -0.0710577 -0.0594052 -0.0498761 -0.0420836 
-0.0357112 -0.0305 -0.0262385 -0.0227535 -0.322099 
-0.264679 -0.217723 -0.179324 -0.147923 -0.122244 
-0.101245 -0.0840726 -0.0700296 -0.0585456 -0.0491545 
-0.0414747 -0.0351944 -0.0300587 -0.0258588 -0.0224243 
-0.314268 -0.258244 -0.21243 -0.174965 -0.144327 
-0.119272 -0.0987836 -0.0820286 -0.068327 -0.0571223 
-0.0479594 -0.0404664 -0.0343388 -0.0293279 -0.0252301 
-0.0218791 -0.30341 -0.249322 -0.205091 -0.16892 
-0.139341 -0.115152 -0.0953708 -0.0791947 -0.0659664 
-0.0551488 -0.0463025 -0.0390683 -0.0331524 -0.0283146 
-0.0243585 -0.0211232 -0.289631 -0.237999 -0.195777 
-0.161248 -0.133012 -0.109922 -0.0910395 -0.075598 
-0.0629705 -0.0526442 -0.0441996 -0.037294 -0.0316468 
-0.0270287 -0.0232522 -0.0201639 -0.273062 -0.224384 
-0.184577 -0.152024 -0.125403 -0.103634 -0.0858315 
-0.0712733 -0.0593682 -0.0496326 -0.0416711 -0.0351605 
-0.0298364 -0.0254825 -0.021922 -0.0190104 -0.253864 
-0.208608 -0.1716 -0.141335 -0.116586 -0.0963475 
-0.0797968 -0.0662622 -0.0551941 -0.046143 -0.0387413 
-0.0326885 -0.0277387 -0.0236909 -0.0203807 -0.0176738 
-0.23222 -0.190823 -0.15697 -0.129286 -0.106647 
-0.0881333 -0.0729937 -0.060613 -0.0504885 -0.042209 
-0.0354384 -0.0299016 -0.0253738 -0.0216711 -0.0186432 
-0.016167 -0.208341 -0.1712 -0.140828 -0.115991 
-0.09568 -0.0790703 -0.0654875 -0.05438 -0.0452966 
-0.0378686 -0.0317942 -0.0268267 -0.0227645 -0.0194426 
-0.016726 -0.0145045 -0.182454 -0.149929 -0.12333 
-0.101579 -0.0837918 -0.0692459 -0.0573507 -0.0476233 
-0.0396686 -0.0331634 -0.0278438 -0.0234935 -0.019936 
-0.0170269 -0.0146478 -0.0127024 -0.154811 -0.127213 
-0.104645 -0.0861891 -0.0710966 -0.0587546 -0.0486616 
-0.040408 -0.0336584 -0.0281389 -0.0236252 -0.0199341 
-0.0169156 -0.0144472 -0.0124286 -0.0107778 -0.125677 
-0.103273 -0.0849514 -0.0699689 -0.0577168 -0.0476974 
-0.0395039 -0.0328035 -0.0273242 -0.0228434 -0.0191791 
-0.0161826 -0.0137322 -0.0117283 -0.0100896 -0.00874953 
-0.0953321 -0.0783375 -0.0644399 -0.053075 -0.0437811 
-0.0361809 -0.0299657 -0.0248831 -0.0207268 -0.0173278 
-0.0145483 -0.0122753 -0.0104166 -0.00889652 -0.00765348 
-0.00663696 -0.0640694 -0.052648 -0.0433079 -0.0356699 
-0.0294238 -0.0243159 -0.0201389 -0.0167231 -0.0139297 
-0.0116454 -0.00977743 -0.00824983 -0.00700061 -0.00597904 
-0.00514364 -0.00446047 -0.0321897 -0.0264513 -0.0217587 
-0.0179212 -0.0147831 -0.0122168 -0.0101182 -0.008402 
-0.00699857 -0.0058509 -0.00491237 -0.00414487 -0.00351724 
-0.00300399 -0.00258426 -0.00224103 
0 0 0.02 0.4 
-0.4 -0.02 1.7465e-15 1.17307e-14 2.27374e-15 
2.27374e-15 2.27374e-15 2.27374e-15 2.27374e-15 2.27374e-15 
2.27374e-15 2.27374e-15 2.27374e-15 2.27374e-15 2.27374e-15 
2.27374e-15 2.27374e-15 2.27374e-15 2.27374e-15 2.27374e-15 
0.00196034 0.00390181 0.00580569 0.00765367 0.00942793 
0.0111114 0.0126879 0.0141421 0.0154602 0.0166294 
0.0176384 0.0184776 0.0191388 0.0196157 0.0199037 
0.0228636 0.0263654 0.0306476 0.0358839 0.0422872 
0.0501175 0.0596926 0.0714015 0.0857197 0.103229 
0.124639 0.150821 0.182838 0.221989 0.269865 
0.328409 0.0392069 0.0780361 0.116114 0.153073 
0.188559 0.222228 0.253757 0.282843 0.309204 
0.332588 0.352769 0.369552 0.382776 0.392314 
0.398074 -0.398074 -0.392314 -0.382776 -0.369552 
-0.352769 -0.332588 -0.309204 -0.282843 -0.253757 
-0.222228 -0.188559 -0.153073 -0.116114 -0.0780361 
-0.0392069 -0.328409 -0.269865 -0.221989 -0.182838 
-0.150821 -0.124639 -0.103229 -0.0857197 -0.0714015 
-0.0596926 -0.0501175 -0.0422872 -0.0358839 -0.0306476 
-0.0263654 -0.0228636 -0.0199037 -0.0196157 -0.0191388 
-0.0184776 -0.0176384 -0.0166294 -0.0154602 -0.0141421 
-0.0126879 -0.0111114 -0.00942793 -0.00765367 -0.00580569 
-0.00390181 -0.00196034 0.0199037 0.0196157 0.0191388 
0.0184776 0.0176384 0.0166294 0.0154602 0.0141421 
0.0126879 0.0111114 0.00942793 0.00765367 0.00580569 
0.00390181 0.00196034 2.27374e-15 2.27374e-15 2.27374e-15 
2.27374e-15 2.27374e-15 2.27374e-15 2.27374e-15 2.27374e-15 
2.27374e-15 2.27374e-15 2.27374e-15 2.27374e-15 2.27374e-15 
2.27374e-15 2.27374e-15 2.27374e-15 0.398074 0.392314 
0.382776 0.369552 0.352769 0.332588 0.309204 
0.282843 0.253757 0.222228 0.188559 0.153073 
0.116114 0.0780361 0.0392069 -0.0392069 -0.0780361 
-0.116114 -0.153073 -0.188559 -0.222228 -0.253757 
-0.282843 -0.309204 -0.332588 -0.352769 -0.369552 
-0.382776 -0.392314 -0.398074 -0.00196034 -0.00390181 
-0.00580569 -0.00765367 -0.00942793 -0.0111114 -0.0126879 
-0.0141421 -0.0154602 -0.0166294 -0.0176384 -0.0184776 
-0.0191388 -0.0196157 -0.0199037 0.00224103 0.00446047 
0.00663696 0.00874953 0.0107778 0.0127024 0.0145045 
0.016167 0.0176738 0.0190104 0.0201639 0.0211232 
0.0218791 0.0224243 0.0227535 0.00258426 0.00514364 
0.00765348 0.0100896 0.0124286 0.0146478 0.016726 
0.0186432 0.0203807 0.021922 0.0232522 0.0243585 
0.0252301 0.0258588 0.0262385 0.00300399 0.00597904 
0.00889652 0.0117283 0.0144472 0.0170269 0.0194426 
0.0216711 0.0236909 0.0254825 0.0270287 0.0283146 
0.0293279 0.0300587 0.0305 0.00351724 0.00700061 
0.0104166 0.0137322 0.0169156 0.019936 0.0227645 
0.0253738 0.0277387 0.0298364 0.0316468 0.0331524 
0.0343388 0.0351944 0.0357112 0.00414487 0.00824983 
0.0122753 0.0161826 0.0199341 0.0234935 0.0268267 
0.0299016 0.0326885 0.0351605 0.037294 0.0390683 
0.0404664 0.0414747 0.0420836 0.00491237 0.00977743 
0.0145483 0.0191791 0.0236252 0.0278438 0.0317942 
0.0354384 0.0387413 0.0416711 0.0441996 0.0463025 
0.0479594 0.0491545 0.0498761 0.0058509 0.0116454 
0.0173278 0.0228434 0.0281389 0.0331634 0.0378686 
0.042209 0.046143 0.0496326 0.0526442 0.0551488 
0.0571223 0.0585456 0.0594052 0.00699857 0.0139297 
0.0207268 0.0273242 0.0336584 0.0396686 0.0452966 
0.0504885 0.0551941 0.0593682 0.0629705 0.0659664 
0.068327 0.0700296 0.0710577 0.008402 0.0167231 
0.0248831 0.0328035 0.040408 0.0476233 0.05438 
0.060613 0.0662622 0.0712733 0.075598 0.0791947 
0.0820286 0.0840726 0.0853069 0.0101182 0.0201389 
0.0299657 0.0395039 0.0486616 0.0573507 0.0654875 
0.0729937 0.0797968 0.0858315 0.0910395 0.0953708 
0.0987836 0.101245 0.102732 0.0122168 0.0243159 
0.0361809 0.0476974 0.0587546 0.0692459 0.0790703 
0.0881333 0.0963475 0.103634 0.109922 0.115152 
0.119272 0.122244 0.124039 0.0147831 0.0294238 
0.0437811 0.0577168 0.0710966 0.0837918 0.09568 
0.106647 0.116586 0.125403 0.133012 0.139341 
0.144327 0.147923 0.150095 0.0179212 0.0356699 
0.053075 0.0699689 0.0861891 0.101579 0.115991 
0.129286 0.141335 0.152024 0.161248 0.16892 
0.174965 0.179324 0.181957 0.0217587 0.0433079 
0.0644399 0.0849514 0.104645 0.12333 0.140828 
0.15697 0.1716 0.184577 0.195777 0.205091 
0.21243 0.217723 0.22092 0.0264513 0.052648 
0.0783375 0.103273 0.127213 0.149929 0.1712 
0.190823 0.208608 0.224384 0.237999 0.249322 
0.258244 0.264679 0.268565 0.0321897 0.0640694 
0.0953321 0.125677 0.154811 0.182454 0.208341 
0.23222 0.253864 0.273062 0.289631 0.30341 
0.314268 0.322099 0.326828 -0.326828 -0.268565 
-0.22092 -0.181957 -0.150095 -0.124039 -0.102732 
-0.0853069 -0.0710577 -0.0594052 -0.0498761 -0.0420836 
-0.0357112 -0.0305 -0.0262385 -0.0227535 -0.322099 
-0.264679 -0.217723 -0.179324 -0.147923 -0.122244 
-0.101245 -0.0840726 -0.0700296 -0.0585456 -0.0491545 
-0.0414747 -0.0351944 -0.0300587 -0.0258588 -0.0224243 
-0.314268 -0.258244 -0.21243 -0.174965 -0.144327 
-0.119272 -0.0987836 -0.0820286 -0.068327 -0.0571223 
-0.0479594 -0.0404664 -0.0343388 -0.0293279 -0.0252301 
-0.0218791 -0.30341 -0.249322 -0.205091 -0.16892 
-0.139341 -0.115152 -0.0953708 -0.0791947 -0.0659664 
-0.0551488 -0.0463025 -0.0390683 -0.0331524 -0.0283146 
-0.0243585 -0.0211232 -0.289631 -0.237999 -0.195777 
-0.161248 -0.133012 -0.109922 -0.0910395 -0.075598 
-0.0629705 -0.0526442 -0.0441996 -0.037294 -0.0316468 
-0.0270287 -0.0232522 -0.0201639 -0.273062 -0.224384 
-0.184577 -0.152024 -0.125403 -0.103634 -0.0858315 
-0.0712733 -0.0593682 -0.0496326 -0.0416711 -0.0351605 
-0.0298364 -0.0254825 -0.021922 -0.0190104 -0.253864 
-0.208608 -0.1716 -0.141335 -0.116586 -0.0963475 
-0.0797968 -0.0662622 -0.0551941 -0.046143 -0.0387413 
-0.0326885 -0.0277387 -0.0236909 -0.0203807 -0.0176738 
-0.23222 -0.190823 -0.15697 -0.129286 -0.106647 
-0.0881333 -0.0729937 -0.060613 -0.0504885 -0.042209 
-0.0354384 -0.0299016 -0.0253738 -0.0216711 -0.0186432 
-0.016167 -0.208341 -0.1712 -0.140828 -0.115991 
-0.09568 -0.0790703 -0.0654875 -0.05438 -0.0452966 
-0.0378686 -0.0317942 -0.0268267 -0.0227645 -0.0194426 
-0.016726 -0.0145045 -0.182454 -0.149929 -0.12333 
-0.101579 -0.0837918 -0.0692459 -0.0573507 -0.0476233 
-0.0396686 -0.0331634 -0.0278438 -0.0234935 -0.019936 
-0.0170269 -0.0146478 -0.0127024 -0.154811 -0.127213 
-0.104645 -0.0861891 -0.0710966 -0.0587546 -0.0486616 
-0.040408 -0.0336584 -0.0281389 -0.0236252 -0.0199341 
-0.0169156 -0.0144472 -0.0124286 -0.0107778 -0.125677 
-0.103273 -0.0849514 -0.0699689 -0.0577168 -0.0476974 
-0.0395039 -0.0328035 -0.0273242 -0.0228434 -0.0191791 
-0.0161826 -0.0137322 -0.0117283 -0.0100896 -0.00874953 
-0.0953321 -0.0783375 -0.0644399 -0.053075 -0.0437811 
-0.0361809 -0.0299657 -0.0248831 -0.0207268 -0.0173278 
-0.0145483 -0.0122753 -0.0104166 -0.00889652 -0.00765348 
-0.00663696 -0.0640694 -0.052648 -0.0433079 -0.0356699 
-0.0294238 -0.0243159 -0.0201389 -0.0167231 -0.0139297 
-0.0116454 -0.00977743 -0.00824983 -0.00700061 -0.00597904 
-0.00514364 -0.00446047 -0.0321897 -0.0264513 -0.0217587 
-0.0179212 -0.0147831 -0.0122168 -0.0101182 -0.008402 
-0.00699857 -0.0058509 -0.00491237 -0.00414487 -0.00351724 
-0.00300399 -0.00258426 -0.00224103 0.0227535 0.0224243 
0.0218791 0.0211232 0.0201639 0.0190104 0.0176738 
0.016167 0.0145045 0.0127024 0.0107778 0.00874953 
0.00663696 0.00446047 0.00224103 0.0262385 0.0258588 
0.0252301 0.0243585 0.0232522 0.021922 0.0203807 
0.0186432 0.016726 0.0146478 0.0124286 0.0100896 
0.00765348 0.00514364 0.00258426 0.0305 0.0300587 
0.0293279 0.0283146 0.0270287 0.0254825 0.0236909 
0.0216711 0.0194426 0.0170269 0.0144472 0.0117283 
0.00889652 0.00597904 0.00300399 0.0357112 0.0351944 
0.0343388 0.0331524 0.0316468 0.0298364 0.0277387 
0.0253738 0.0227645 0.019936 0.0169156 0.0137322 
0.0104166 0.00700061 0.00351724 0.0420836 0.0414747 
0.0404664 0.0390683 0.037294 0.0351605 0.0326885 
0.0299016 0.0268267 0.0234935 0.0199341 0.0161826 
0.0122753 0.00824983 0.00414487 0.0498761 0.0491545 
0.0479594 0.0463025 0.0441996 0.0416711 0.0387413 
0.0354384 0.0317942 0.0278438 0.0236252 0.0191791 
0.0145483 0.00977743 0.00491237 0.0594052 0.0585456 
0.0571223 0.0551488 0.0526442 0.0496326 0.046143 
0.042209 0.0378686 0.0331634 0.0281389 0.0228434 
0.0173278 0.0116454 0.0058509 0.0710577 0.0700296 
0.068327 0.0659664 0.0629705 0.0593682 0.0551941 
0.0504885 0.0452966 0.0396686 0.0336584 0.0273242 
0.0207268 0.0139297 0.00699857 0.0853069 0.0840726 
0.0820286 0.0791947 0.075598 0.0712733 0.0662622 
0.060613 0.05438 0.0476233 0.040408 0.0328035 
0.0248831 0.0167231 0.008402 0.102732 0.101245 
0.0987836 0.0953708 0.0910395 0.0858315 0.0797968 
0.0729937 0.0654875 0.0573507 0.0486616 0.0395039 
0.0299657 0.0201389 0.0101182 0.124039 0.122244 
0.119272 0.115152 0.109922 0.103634 0.0963475 
0.0881333 0.0790703 0.0692459 0.0587546 0.0476974 
0.0361809 0.0243159 0.0122168 0.150095 0.147923 
0.144327 0.139341 0.133012 0.125403 0.116586 
0.106647 0.09568 0.0837918 0.0710966 0.0577168 
0.0437811 0.0294238 0.0147831 0.181957 0.179324 
0.174965 0.16892 0.161248 0.152024 0.141335 
0.129286 0.115991 0.101579 0.0861891 0.0699689 
0.053075 0.0356699 0.0179212 0.22092 0.217723 
0.21243 0.205091 0.195777 0.184577 0.1716 
0.15697 0.140828 0.12333 0.104645 0.0849514 
0.0644399 0.0433079 0.0217587 0.268565 0.264679 
0.258244 0.249322 0.237999 0.224384 0.208608 
0.190823 0.1712 0.149929 0.127213 0.103273 
0.0783375 0.052648 0.0264513 0.326828 0.322099 
0.314268 0.30341 0.289631 0.273062 0.253864 
0.23222 0.208341 0.182454 0.154811 0.125677 
0.0953321 0.0640694 0.0321897 -0.0321897 -0.0264513 
-0.0217587 -0.0179212 -0.0147831 -0.0122168 -0.0101182 
-0.008402 -0.00699857 -0.0058509 -0.00491237 -0.00414487 
-0.00351724 -0.00300399 -0.00258426 -0.00224103 -0.0640694 
-0.052648 -0.0433079 -0.0356699 -0.0294238 -0.0243159 
-0.0201389 -0.0167231 -0.0139297 -0.0116454 -0.00977743 
-0.00824983 -0.00700061 -0.00597904 -0.00514364 -0.00446047 
-0.0953321 -0.0783375 -0.0644399 -0.053075 -0.0437811 
-0.0361809 -0.0299657 -0.0248831 -0.0207268 -0.0173278 
-0.0145483 -0.0122753 -0.0104166 -0.00889652 -0.00765348 
-0.00663696 -0.125677 -0.103273 -0.0849514 -0.0699689 
-0.0577168 -0.0476974 -0.0395039 -0.0328035 -0.0273242 
-0.0228434 -0.0191791 -0.0161826 -0.0137322 -0.0117283 
-0.0100896 -0.00874953 -0.154811 -0.127213 -0.104645 
-0.0861891 -0.0710966 -0.0587546 -0.0486616 -0.040408 
-0.0336584 -0.0281389 -0.0236252 -0.0199341 -0.0169156 
-0.0144472 -0.0124286 -0.0107778 -0.182454 -0.149929 
-0.12333 -0.101579 -0.0837918 -0.0692459 -0.0573507 
-0.0476233 -0.0396686 -0.0331634 -0.0278438 -0.0234935 
-0.019936 -0.0170269 -0.0146478 -0.0127024 -0.208341 
-0.1712 -0.140828 -0.115991 -0.09568 -0.0790703 
-0.0654875 -0.05438 -0.0452966 -0.0378686 -0.0317942 
-0.0268267 -0.0227645 -0.0194426 -0.016726 -0.0145045 
-0.23222 -0.190823 -0.15697 -0.129286 -0.106647 
-0.0881333 -0.0729937 -0.060613 -0.0504885 -0.042209 
-0.0354384 -0.0299016 -0.0253738 -0.0216711 -0.0186432 
-0.016167 -0.253864 -0.208608 -0.1716 -0.141335 
-0.116586 -0.0963475 -0.0797968 -0.0662622 -0.0551941 
-0.046143 -0.0387413 -0.0326885 -0.0277387 -0.0236909 
-0.0203807 -0.0176738 -0.273062 -0.224384 -0.184577 
-0.152024 -0.125403 -0.103634 -0.0858315 -0.0712733 
-0.0593682 -0.0496326 -0.0416711 -0.0351605 -0.0298364 
-0.0254825 -0.021922 -0.0190104 -0.289631 -0.237999 
-0.195777 -0.161248 -0.133012 -0.109922 -0.0910395 
-0.075598 -0.0629705 -0.0526442 -0.0441996 -0.037294 
-0.0316468 -0.0270287 -0.0232522 -0.0201639 -0.30341 
-0.249322 -0.205091 -0.16892 -0.139341 -0.115152 
-0.0953708 -0.0791947 -0.0659664 -0.0551488 -0.0463025 
-0.0390683 -0.0331524 -0.0283146 -0.0243585 -0.0211232 
-0.314268 -0.258244 -0.21243 -0.174965 -0.144327 
-0.119272 -0.0987836 -0.0820286 -0.068327 -0.0571223 
-0.0479594 -0.0404664 -0.0343388 -0.0293279 -0.0252301 
-0.0218791 -0.322099 -0.264679 -0.217723 -0.179324 
-0.147923 -0.122244 -0.101245 -0.0840726 -0.0700296 
-0.0585456 -0.0491545 -0.0414747 -0.0351944 -0.0300587 
-0.0258588 -0.0224243 -0.326828 -0.268565 -0.22092 
-0.181957 -0.150095 -0.124039 -0.102732 -0.0853069 
-0.0710577 -0.0594052 -0.0498761 -0.0420836 -0.0357112 
-0.0305 -0.0262385 -0.0227535 
0.171697 0.169984 0.183138 0.214246 
0.262854 0.328185 0.410428 0.5106 0.630125 
0.770438 0.932715 1.11768 1.3254 1.55518 
1.80547 0.211826 0.206165 0.206665 0.2225 
0.258856 0.315723 0.391802 0.486647 0.600674 
0.734603 0.888969 1.06378 1.25829 1.47086 
1.69886 1.93874 0.251131 0.248417 0.252521 
0.273697 0.318575 0.387436 0.478329 0.58998 
0.72192 0.873787 1.04476 1.23314 1.43621 
1.65011 1.86994 2.09001 0.294524 0.295062 
0.303783 0.331815 0.386991 0.469692 0.57712 
0.706842 0.857057 1.0258 1.21029 1.40654 
1.60933 1.81228 2.00824 2.18979 0.339457 
0.34392 0.358643 0.395044 0.461814 0.559317 
0.683663 0.830795 0.996953 1.17787 1.36812 
1.56092 1.74834 1.92181 2.07294 2.19445 
0.384876 0.393964 0.416151 0.462475 0.541802 
0.654197 0.79434 0.955937 1.13253 1.31685 
1.50042 1.67374 1.82705 1.95142 2.04006 
2.08938 0.431502 0.445718 0.476445 0.533824 
0.625969 0.752019 0.904714 1.07488 1.25275 
1.42787 1.58917 1.72593 1.82913 1.89303 
1.91628 1.90227 0.482262 0.50165 0.541118 
0.609531 0.713267 0.849653 1.00886 1.17845 
1.34544 1.49705 1.62165 1.71033 1.75853 
1.76702 1.74173 1.69224 0.542588 0.566428 
0.613415 0.690827 0.802464 0.943003 1.0997 
1.25721 1.4006 1.51706 1.59758 1.63843 
1.64183 1.61526 1.5693 1.51485 0.619627 
0.646268 0.697706 0.779371 0.892046 1.02753 
1.17066 1.30467 1.41509 1.49213 1.53209 
1.53761 1.5165 1.47928 1.43618 1.39497 
0.718639 0.745809 0.797036 0.875719 0.979885 
1.09934 1.21828 1.32089 1.39589 1.43847 
1.45042 1.43865 1.41267 1.38158 1.35208 
1.32776 0.837305 0.862614 0.908626 0.976516 
1.06255 1.15651 1.24445 1.3141 1.35872 
1.37794 1.37663 1.36236 1.34273 1.3234 
1.30744 1.29574 0.964501 0.985005 1.02162 
1.07313 1.13519 1.19954 1.25629 1.29779 
1.3212 1.32842 1.32435 1.31461 1.3037 
1.29426 1.28728 1.28264 1.08527 1.09779 
1.12208 1.15531 1.19344 1.23099 1.26235 
1.28384 1.29486 1.29745 1.29489 1.29026 
1.28564 1.28201 1.27955 1.27805 1.18247 
1.18699 1.19904 1.21606 1.23512 1.25315 
1.26758 1.27705 1.2817 1.28278 1.28189 
1.28032 1.27885 1.27777 1.27709 1.2767 
1.24242 1.24278 1.24673 1.25304 1.26023 
1.26695 1.27219 1.27557 1.27723 1.2777 
1.27754 1.27718 1.27684 1.2766 1.27645 
1.27638 1.26795 1.26756 1.2683 1.26983 
1.27171 1.27351 1.27493 1.27586 1.27633 
1.2765 1.2765 1.27645 1.27639 1.27635 
1.27633 1.27632 2.07384 1.27631 1.27631 
1.27634 1.27662 1.27843 1.28804 1.32873 
1.45789 1.73602 2.10195 2.36554 2.42519 
2.33004 2.16053 1.96832 1.79165 1.27631 
1.27631 1.27632 1.27642 1.27718 1.28163 
1.30224 1.37575 1.56284 1.87048 2.1651 
2.29518 2.2488 2.09833 1.9054 1.70417 
1.52403 1.27631 1.27631 1.27635 1.27666 
1.27873 1.28928 1.33065 1.45019 1.68456 
1.96731 2.14829 2.15717 2.03789 1.8573 
1.65654 1.45708 1.28199 1.27631 1.27632 
1.27644 1.27738 1.28273 1.30584 1.37998 
1.5469 1.78934 1.99165 2.05017 1.96888 
1.80828 1.61732 1.42044 1.23077 1.06683 
1.27631 1.27635 1.27674 1.27931 1.29184 
1.33646 1.4495 1.64049 1.83628 1.92922 
1.88643 1.75065 1.57403 1.38684 1.202 
1.02759 0.878766 1.27632 1.27645 1.27755 
1.28382 1.30922 1.3817 1.52172 1.6917 
1.79991 1.78984 1.68075 1.52121 1.34641 
1.17219 1.00453 0.848663 0.717099 1.27635 
1.27673 1.27943 1.29242 1.33516 1.42988 
1.56383 1.66948 1.68193 1.59797 1.45674 
1.2955 1.13361 0.977661 0.82991 0.694077 
0.58053 1.27642 1.27735 1.2829 1.30484 
1.36196 1.45642 1.5456 1.56848 1.50482 
1.3812 1.23363 1.08424 0.941159 0.805846 
0.678904 0.563245 0.467451 1.27657 1.2784 
1.28751 1.31635 1.37321 1.43669 1.45802 
1.4074 1.29837 1.16307 1.02522 0.894522 
0.772443 0.658105 0.551553 0.455259 0.376277 
1.2768 1.27958 1.29074 1.31748 1.35212 
1.36194 1.31586 1.21623 1.08981 0.960917 
0.840741 0.730924 0.629631 0.535228 0.447726 
0.369295 0.305675 1.27696 1.27986 1.28819 
1.29901 1.29291 1.24401 1.14765 1.02485 
0.900274 0.786865 0.686655 0.596943 0.514663 
0.438177 0.36761 0.304838 0.254555 1.27677 
1.27772 1.27607 1.2587 1.20546 1.10872 
0.984483 0.858033 0.745389 0.649982 0.568464 
0.496244 0.430046 0.368439 0.31161 0.261233 
0.221486 1.27587 1.2721 1.25431 1.20422 
1.11077 0.984966 0.852148 0.733119 0.635277 
0.556187 0.489973 0.431403 0.377247 0.326213 
0.278585 0.236245 0.203654 1.2741 1.26347 
1.22769 1.14975 1.03133 0.894893 0.765382 
0.656829 0.571483 0.504435 0.448828 0.39913 
0.352074 0.306503 0.263129 0.224662 0.196271 
1.27175 1.25398 1.20349 1.10873 0.981256 
0.846 0.722824 0.621649 0.543507 0.482995 
0.432837 0.387264 0.343011 0.299194 0.257073 
0.219981 0.193261 1.26947 1.24632 1.18766 
1.0876 0.961394 0.830567 0.710908 0.612134 
0.53602 0.477204 0.428269 0.38346 0.339659 
0.296146 0.254202 0.216835 0.188825 1.27631 
2.35702 2.65098 2.95113 3.2525 3.54996 
3.83849 4.11334 4.37025 4.60555 4.81615 
4.99954 5.15374 5.27713 5.3684 5.42638 
2.18609 2.43589 2.68277 2.92133 3.14653 
3.35395 3.54016 3.70285 3.84101 3.95487 
4.04588 4.11651 4.17001 4.21006 4.24035 
4.26402 2.30412 2.50601 2.68983 2.85062 
2.98472 3.09009 3.16649 3.21548 3.24025 
3.24531 3.23604 3.21821 3.19749 3.17906 
3.16731 3.16568 2.34992 2.48265 2.58369 
2.65096 2.68477 2.68782 2.66482 2.62186 
2.56564 2.50273 2.43898 2.37917 2.32701 
2.28517 2.2556 2.23975 2.28109 2.33041 
2.34309 2.32292 2.27608 2.21022 2.13322 
2.05225 1.97304 1.89969 1.83472 1.77944 
1.73427 1.69914 1.67376 1.65789 2.09974 
2.07533 2.02342 1.95295 1.87297 1.79128 
1.71374 1.644 1.58385 1.53366 1.49289 
1.46055 1.4355 1.41665 1.40307 1.39407 
1.85838 1.79437 1.72038 1.64511 1.5749 
1.51344 1.46218 1.42099 1.38882 1.36422 
1.34571 1.33197 1.32187 1.31457 1.30941 
1.30594 1.62943 1.56322 1.50098 1.44706 
1.40315 1.36904 1.34348 1.32484 1.3115 
1.30207 1.29545 1.29083 1.2876 1.28536 
1.28382 1.28279 1.46086 1.41311 1.37425 