
TITLE     = "DG2D to Tecplot"
VARIABLES = "X"
"Y"
"RHO"
"U"
"V"
"VELOCITY_MAG"
"P"
"T"
"THETA1"
"THETA2"
ZONE T="ZONE 1"
STRANDID=0
ZONETYPE=FEQuadrilateral
DATAPACKING=BLOCK
VARLOCATION=([3-10]=CELLCENTERED)
DT=(SINGLE SINGLE SINGLE SINGLE SINGLE SINGLE SINGLE SINGLE SINGLE SINGLE)

Nodes=548, Elements=1006
0.05 0.05 -3.88578e-16 -3.88578e-16 
0.14 0.14 -3.88578e-16 -3.88578e-16 -3.88578e-16 
-3.88578e-16 -3.88578e-16 -3.88578e-16 -3.88578e-16 -3.88578e-16 
-3.88578e-16 -3.88578e-16 -3.88578e-16 -3.88578e-16 -3.88578e-16 
-3.88578e-16 -3.88578e-16 0.045 0.04 0.035 
0.03 0.025 0.02 0.015 0.01 
0.005 0.05 0.05 0.05 0.05 
0.05 0.05 0.05 0.05 0.05 
0.05 0.05 0.05 0.05 0.05 
0.05 0.005 0.01 0.015 0.02 
0.025 0.03 0.035 0.04 0.045 
0.135 0.13 0.125 0.12 0.115 
0.11 0.105 0.1 0.095 0.09 
0.085 0.08 0.075 0.07 0.065 
0.06 0.055 0.14 0.14 0.14 
0.14 0.14 0.14 0.14 0.14 
0.14 0.14 0.14 0.14 0.14 
0.14 0.14 0.055 0.06 0.065 
0.07 0.075 0.08 0.085 0.09 
0.095 0.1 0.105 0.11 0.115 
0.12 0.125 0.13 0.135 0.00441872 
0.00441736 0.004436 0.00447963 0.00443661 0.00442809 
0.00446324 0.0431093 0.0326026 0.0225849 0.012701 
0.0456369 0.0455014 0.0454191 0.0454932 0.0455855 
0.045728 0.0455948 0.00686385 0.0173913 0.0275096 
0.0374057 0.00459018 0.00438888 0.00447111 0.00446296 
0.00440999 0.00444058 0.0041588 0.0275527 0.0378107 
0.0176153 0.00824326 0.0454589 0.0454265 0.04545 
0.0455365 0.045657 0.0457159 0.0458195 0.0121629 
0.0224825 0.0324913 0.0418324 0.00884743 0.0407955 
0.00896493 0.00883337 0.00884395 0.0202569 0.0089191 
0.00960327 0.00913755 0.0409532 0.00891496 0.0299881 
0.0251115 0.0351123 0.0407922 0.0406239 0.00869536 
0.0152134 0.040863 0.0411027 0.0413788 0.0414018 
0.0147973 0.0250314 0.035068 0.00897282 0.00884337 
0.00878903 0.00894468 0.0408949 0.0412111 0.0411742 
0.0410198 0.0415391 0.0199257 0.0300758 0.0181923 
0.0375368 0.0321532 0.0131811 0.0134605 0.0361954 
0.01281 0.0365476 0.0132023 0.0138665 0.0276681 
0.0224389 0.0368659 0.0372007 0.01732 0.0364307 
0.0130739 0.0369863 0.013514 0.0134359 0.0360531 
0.0135036 0.0133544 0.0133615 0.0364685 0.0366656 
0.0228464 0.0274905 0.0372549 0.0363487 0.0327417 
0.0127553 0.0325643 0.0180184 0.0177933 0.0339523 
0.0318517 0.0170449 0.0179754 0.030792 0.0332087 
0.0195711 0.0181048 0.0320417 0.0316947 0.0164669 
0.0181104 0.0313771 0.0180654 0.0173838 0.0319544 
0.0321959 0.0248135 0.0206575 0.0253095 0.0174691 
0.029892 0.0221651 0.0214055 0.0273201 0.0228112 
0.0263727 0.0271974 0.0269534 0.0226528 0.0227146 
0.0276684 0.0225027 0.0274642 0.0228787 0.0284579 
0.027379 0.0227541 0.0541483 0.054455 0.0544357 
0.0544198 0.0543809 0.0543673 0.0543567 0.0543501 
0.0543497 0.0543572 0.0543884 0.0544802 0.0546144 
0.0542672 0.0534098 0.133037 0.122575 0.112549 
0.102561 0.0925489 0.0826102 0.0726712 0.0625365 
0.057671 0.135875 0.135809 0.135651 0.135618 
0.135581 0.135408 0.135325 0.0568516 0.0673419 
0.07744 0.0874743 0.0975143 0.107513 0.117415 
0.126932 0.131627 0.107566 0.127754 0.11752 
0.0975524 0.0875651 0.077664 0.0676187 0.135623 
0.135945 0.135709 0.135614 0.135497 0.13535 
0.135691 0.0621381 0.0724076 0.0824555 0.0924955 
0.102523 0.11248 0.122242 0.0900736 0.0588264 
0.0589122 0.058766 0.0587489 0.0587265 0.0587067 
0.058704 0.0587099 0.0587266 0.0587989 0.0590518 
0.0596068 0.125008 0.095086 0.105152 0.130493 
0.131338 0.0802277 0.115121 0.0704073 0.130889 
0.131483 0.0851154 0.131225 0.131239 0.13172 
0.131219 0.119963 0.0591113 0.13068 0.0698001 
0.110174 0.0798781 0.0899655 0.100058 0.110037 
0.119878 0.075371 0.132083 0.100117 0.131105 
0.0652927 0.131244 0.130709 0.0647365 0.0849132 
0.0748443 0.0950184 0.105071 0.114964 0.124499 
0.128582 0.122093 0.0630798 0.0631493 0.063128 
0.0630706 0.0630644 0.0630797 0.0630909 0.0630964 
0.063189 0.0637306 0.092579 0.11746 0.127108 
0.112589 0.126825 0.112912 0.107676 0.082599 
0.0722022 0.126137 0.068421 0.127289 0.126817 
0.117795 0.125898 0.126773 0.0822879 0.102721 
0.0924919 0.102661 0.0672228 0.126001 0.126534 
0.0976452 0.126867 0.0731853 0.126866 0.122837 
0.0875439 0.107828 0.0638334 0.0772251 0.0627122 
0.0873865 0.0975919 0.12775 0.077822 0.0676322 
0.0674369 0.0674204 0.0674561 0.0675016 0.0675031 
0.0674343 0.0674297 0.122561 0.0798409 0.0951369 
0.0795371 0.100256 0.0899086 0.110402 0.123089 
0.0848519 0.110663 0.0847166 0.119458 0.122296 
0.100234 0.105388 0.121375 0.0744351 0.0694379 
0.120161 0.0950916 0.122245 0.0711932 0.122508 
0.105386 0.0670457 0.115171 0.0752135 0.0900238 
0.116093 0.122451 0.0675702 0.12169 0.0714485 
0.0717484 0.0718188 0.0719091 0.0719968 0.0719489 
0.0716316 0.11751 0.11764 0.122459 0.118168 
0.118519 0.0762931 0.081625 0.0874389 0.0727114 
0.0764926 0.103046 0.113636 0.0976908 0.0926443 
0.113589 0.118124 0.117926 0.118338 0.108093 
0.0717609 0.0925864 0.102799 0.0818851 0.116227 
0.0977945 0.108374 0.087233 0.113929 0.111975 
0.076274 0.0764027 0.0760328 0.0808963 0.085436 
0.0786805 0.110714 0.113032 0.105925 0.113883 
0.11336 0.0766009 0.0761753 0.0953988 0.105258 
0.0758316 0.0903531 0.0901648 0.0951475 0.100543 
0.080513 0.0843652 0.107497 0.100095 0.107818 
0.0806835 0.080691 0.0848378 0.0801522 0.0972823 
0.102259 0.103115 0.110372 0.0983553 0.109151 
0.0884917 0.0930728 0.108961 0.0926068 0.0846292 
0.102984 0.0991606 0.0852298 0.105928 0.104124 
0.0883402 0.0893293 0.0852837 0.0941408 0.095928 
0.0897224 0.0960789 0.100817 0.0906909 
2.27374e-15 0.08 2.27374e-15 0.08 
2.27374e-15 0.08 0.075 0.07 0.065 
0.06 0.055 0.05 0.045 0.04 
0.035 0.03 0.025 0.02 0.015 
0.01 0.005 0.08 0.08 0.08 
0.08 0.08 0.08 0.08 0.08 
0.08 0.005 0.01 0.015 0.02 
0.025 0.03 0.035 0.04 0.045 
0.05 0.055 0.06 0.065 0.07 
0.075 2.27374e-15 2.27374e-15 2.27374e-15 2.27374e-15 
2.27374e-15 2.27374e-15 2.27374e-15 2.27374e-15 2.27374e-15 
0.08 0.08 0.08 0.08 0.08 
0.08 0.08 0.08 0.08 0.08 
0.08 0.08 0.08 0.08 0.08 
0.08 0.08 0.005 0.01 0.015 
0.02 0.025 0.03 0.035 0.04 
0.045 0.05 0.055 0.06 0.065 
0.07 0.075 2.27374e-15 2.27374e-15 2.27374e-15 
2.27374e-15 2.27374e-15 2.27374e-15 2.27374e-15 2.27374e-15 
2.27374e-15 2.27374e-15 2.27374e-15 2.27374e-15 2.27374e-15 
2.27374e-15 2.27374e-15 2.27374e-15 2.27374e-15 0.073068 
0.062485 0.0523731 0.0423956 0.032436 0.0224571 
0.0125876 0.0756118 0.0757056 0.0757568 0.075538 
0.00684692 0.0173529 0.0274681 0.0375397 0.0475266 
0.0574429 0.0673489 0.00434621 0.00436078 0.00444677 
0.00441371 0.067734 0.0573827 0.0473831 0.0374179 
0.0274564 0.0174907 0.00815984 0.0757731 0.0754943 
0.0756791 0.0757735 0.0121385 0.0224228 0.0325115 
0.0425436 0.052485 0.0624263 0.0717924 0.00446898 
0.00440969 0.00441113 0.00413566 0.0649219 0.0248951 
0.0397887 0.0547189 0.0298803 0.0714979 0.0198878 
0.0706789 0.00932699 0.0350954 0.0348322 0.0715723 
0.0715259 0.0713502 0.0705048 0.00907334 0.0597108 
0.0712739 0.0300115 0.0451252 0.0549555 0.0649064 
0.00861035 0.0088934 0.00869946 0.0447738 0.0149144 
0.0249305 0.0497446 0.0198043 0.0500681 0.0147265 
0.0401403 0.0598519 0.00872775 0.00892442 0.0673498 
0.0620638 0.0675375 0.0569997 0.0371363 0.0274877 
0.0618099 0.0428263 0.0273463 0.0172202 0.0135816 
0.0131838 0.0526509 0.0574045 0.012934 0.0171093 
0.0224977 0.0668898 0.0471062 0.0521022 0.0222027 
0.0421173 0.0667477 0.0322049 0.0377877 0.0477772 
0.0672032 0.0672967 0.0125873 0.0326886 0.0133913 
0.0126127 0.0553815 0.0545468 0.029505 0.0639314 
0.0355296 0.0206245 0.0343814 0.018902 0.0598939 
0.0171158 0.044375 0.045627 0.0303415 0.0636227 
0.0494517 0.0249563 0.0393434 0.0593812 0.0406116 
0.0505902 0.0179067 0.0628895 0.0627087 0.0248495 
0.0632608 0.0264799 0.0216868 0.0384827 0.0518159 
0.0229921 0.0333925 0.0282376 0.0364318 0.0414788 
0.0537051 0.0314226 0.0486292 0.0575983 0.0586286 
0.0435586 0.0465816 0.0081473 0.0125732 0.0174806 
0.0224555 0.0274608 0.0324548 0.0374453 0.0424316 
0.0474106 0.052388 0.0573832 0.0624262 0.0675113 
0.0723628 0.0766016 0.0755929 0.0758181 0.0757479 
0.0756651 0.0756727 0.075762 0.0759084 0.0755402 
0.0757835 0.00706306 0.0174327 0.0274061 0.0373642 
0.0473437 0.0573189 0.067246 0.00433442 0.0043048 
0.0043728 0.00443378 0.00442976 0.00441256 0.00437765 
0.00413416 0.00477061 0.0756854 0.075533 0.0758591 
0.0756662 0.0756956 0.0758628 0.0757848 0.0323886 
0.0124082 0.0224161 0.0423477 0.0523318 0.0623034 
0.0717394 0.00443722 0.00432756 0.00441469 0.00443529 
0.00442723 0.00439014 0.0043028 0.0713464 0.0148837 
0.0198814 0.024943 0.0299255 0.0349034 0.0398819 
0.0448425 0.0497813 0.0547125 0.0596866 0.0648307 
0.0705576 0.0715175 0.0713392 0.0713332 0.0704117 
0.0248006 0.0715865 0.071576 0.07185 0.0546145 
0.0197955 0.0714056 0.0446616 0.0397023 0.0148649 
0.034719 0.0718737 0.00929294 0.0646831 0.00859322 
0.0713937 0.0087979 0.00887377 0.00885766 0.00881748 
0.00881046 0.0718415 0.00996794 0.071332 0.049632 
0.0713897 0.0297634 0.0595844 0.00854071 0.00886314 
0.00869224 0.00886515 0.00885463 0.00875821 0.00857761 
0.00796572 0.0682611 0.0225184 0.0274222 0.032357 
0.0373388 0.0422931 0.0472065 0.0520683 0.0568856 
0.0617147 0.0666581 0.0670182 0.0130232 0.0220927 
0.0131941 0.0468895 0.0671421 0.0133069 0.0671176 
0.0129276 0.0666708 0.0677945 0.017043 0.0370156 
0.0675355 0.0616886 0.0320345 0.0132986 0.0669974 
0.0133201 0.0133118 0.0128162 0.0567737 0.0518293 
0.0670219 0.0270931 0.0680608 0.0419698 0.0136707 
0.0669935 0.0670135 0.0171757 0.0131492 0.0125506 
0.0133396 0.0133028 0.0122023 0.0675304 0.0297541 
0.0347961 0.0397496 0.0446635 0.0495121 0.054255 
0.0588564 0.0633492 0.0242852 0.0628512 0.0627499 
0.0177389 0.0177718 0.0178363 0.0178074 0.0193199 
0.0625335 0.0627142 0.017857 0.0169456 0.0342793 
0.0627075 0.0626619 0.0639943 0.0174223 0.0169668 
0.0588243 0.017757 0.0292436 0.0647308 0.0441502 
0.0178329 0.0205976 0.0174859 0.0637711 0.0626877 
0.0629668 0.0392592 0.0249284 0.0537802 0.0215497 
0.0372264 0.0421197 0.0469915 0.0518164 0.0564555 
0.0608207 0.0313785 0.0261956 0.0489322 0.0415281 
0.0212899 0.0591826 0.0575479 0.0583134 0.0267029 
0.0221204 0.0222809 0.0584853 0.0584741 0.0585421 
0.022342 0.0463155 0.0365078 0.0505833 0.058324 
0.0322538 0.0222691 0.0583706 0.0224499 0.0543419 
0.0222023 0.0225196 0.0224769 0.0438969 0.0279031 
0.0444054 0.0493648 0.0347264 0.051807 0.053786 
0.0266568 0.053924 0.0338465 0.0268774 0.0389079 
0.0491998 0.0543431 0.0395204 0.0267594 0.0540075 
0.030308 0.054476 0.0267536 0.0543147 0.0266024 
0.0366857 0.0276973 0.0496161 0.0541357 0.0319603 
0.0466526 0.0416697 0.0488137 0.0316057 0.0499438 
0.0497438 0.0305903 0.0411969 0.0314235 0.0452492 
0.0507574 0.0313837 0.0369063 0.0502615 0.0336304 
0.035689 0.0455313 0.0438632 0.0408287 0.0452902 
0.0309644 0.0465264 0.0387841 0.045836 0.0366194 
0.0355994 0.0417534 0.0407401 0.0411759 
9.04975e-05 7.94354e-05 7.7134e-05 7.74448e-05 
7.7773e-05 7.76036e-05 7.75962e-05 7.67389e-05 7.71875e-05 
0.000117183 0.000122844 0.000125844 0.000125668 0.000124821 
0.000109598 0.000122503 0.000124721 0.000124463 0.000125642 
0.000125968 0.000126302 0.000124093 0.000135212 0.00012201 
0.000124084 0.000123601 0.000124228 0.000108667 9.97614e-05 
0.000122027 0.000104193 7.87033e-05 0.000103676 7.71982e-05 
7.76914e-05 7.77244e-05 7.74919e-05 7.70754e-05 0.000103468 
7.58863e-05 0.000123891 0.000125985 0.000124434 0.00012465 
0.000125543 0.000123144 0.000125377 0.000104432 0.000116016 
0.00012256 0.000124451 0.000125268 0.000125907 0.000125517 
0.000125688 0.00012644 0.00012575 0.000123807 0.00012367 
0.000129418 0.000103551 0.000126685 0.000103648 0.000103445 
0.000103457 0.000103235 9.96741e-05 0.000122791 0.000122371 
0.000121482 0.000121743 0.000121707 0.000121811 0.000123052 
0.000123981 0.000123723 0.000119703 0.00010158 0.000121802 
0.000121738 0.000121762 0.000121876 0.000122119 0.000124246 
0.000123731 0.000103523 0.000103927 0.000122338 0.000122159 
0.000122779 0.000121741 0.000121341 0.000116618 0.000124681 
0.000110378 0.000110329 0.000109133 0.000124435 0.000110181 
0.000128079 0.000129857 0.000126337 0.000109826 0.000131329 
0.000104316 0.000125212 0.000124734 0.000122845 0.000123545 
0.00012515 0.000124604 0.000124477 0.000130211 0.000122521 
0.000109854 0.000130292 0.000105939 0.000125896 0.000117051 
0.000125867 0.000121576 0.000126602 0.000125733 0.000126916 
0.000123618 0.000131104 0.000143812 0.000123834 0.000123072 
0.000110292 0.000130866 0.000115472 0.000131455 0.000108038 
0.000132352 0.000110505 0.0001306 0.000125283 0.000122192 
0.000122384 0.000125085 0.000133406 0.000113654 0.000131171 
0.000122142 0.000121381 0.000121176 0.000130417 0.000121209 
0.000131845 0.000130844 0.00013114 0.000124889 0.000121827 
0.000126545 0.000127283 0.000126443 0.00012199 0.00012117 
0.0001268 0.000117346 0.0001157 0.000123912 0.000129245 
0.000118431 0.000129885 0.00012382 0.000122376 0.0001245 
0.000124846 0.000121584 0.000125166 0.000121608 0.000121695 
0.000121695 0.000122882 0.000122862 0.00012971 0.000126409 
0.000118442 0.000119114 0.000125728 0.000116931 0.000127378 
0.00012659 0.000117164 0.000122895 0.000123741 0.000123746 
0.000126815 0.000126668 0.000127552 0.000123495 0.000123954 
0.000125696 0.000126109 0.000113528 0.000131813 0.000130922 
0.000125264 0.000128692 0.000119019 0.000118669 0.000129631 
0.000123691 0.000120673 0.00011892 0.000129478 0.000118703 
0.00012089 0.000126353 0.0001187 0.000129503 0.000126812 
0.000121343 0.000126624 0.000121843 0.000124704 0.000124233 
0.000126151 0.000121566 0.000125239 0.000122759 0.0001213 
0.000129446 0.00012928 0.000122292 0.000120141 0.000128754 
0.000138341 0.000126525 0.000124275 0.00012245 0.000124247 
0.000116903 0.000127055 0.000123366 0.000131149 0.000122582 
0.000115981 0.000121163 0.00012126 0.000130059 0.000116937 
0.000120469 0.000126548 0.000118891 0.000130878 0.000120078 
0.000135578 0.00012643 0.000127309 0.000115056 0.000120432 
0.000128097 0.000114781 0.000127722 0.000121068 0.000124048 
0.000123954 0.000119858 0.000126658 0.000127481 0.000120807 
0.000120835 0.000112786 0.000119388 0.000129556 0.000123512 
0.000125815 0.000120544 0.000120215 0.000128305 0.000116796 
0.000126094 0.000130954 0.00012716 0.000120912 0.000126403 
0.00012055 0.000118276 0.00012796 0.000123846 0.000124606 
0.000134509 0.000124697 0.000125623 0.000120895 0.000119095 
0.000123915 0.000121153 0.000118846 0.000119629 0.000114439 
0.000119525 0.000124919 0.000130855 0.00012877 0.000130783 
0.000120744 0.000119092 0.000118358 0.000124191 0.000132638 
0.000130217 0.000125792 0.000127696 0.000122741 0.000128279 
0.000128933 0.000130985 0.000128919 0.000120373 0.000129948 
0.000121367 0.000119922 0.00012159 0.00012076 0.000127562 
0.000123542 0.000122804 0.000126568 0.000126322 0.000119802 
0.000128441 0.00012529 0.000126328 0.000121507 0.000118503 
0.000118825 0.000129092 0.000127073 0.000126829 0.000123731 
0.000120434 0.000128293 0.000119706 0.000129946 0.000120073 
0.000117507 0.000131643 0.000125452 0.000127706 0.000127828 
0.000118765 0.000127859 0.00012812 0.000119571 0.000120262 
0.000122397 0.00012074 0.000128699 0.000126213 0.000119753 
0.000124986 0.000121711 0.000137921 0.000117029 0.00011414 
0.000124349 0.000122081 0.000129957 0.000118362 0.000127321 
0.000118452 0.000131149 0.00011622 0.000131445 0.000116334 
0.000131238 0.000116525 0.000131105 0.000116735 0.000130879 
0.000118877 0.000130471 0.000119308 0.000130595 0.000119296 
0.000130863 0.000118713 0.000131779 0.000117261 0.000129802 
0.000112061 0.000114154 0.000126256 0.000117297 0.00012335 
0.000126055 0.000125889 0.000125917 0.000126015 0.000125659 
0.000125072 0.000126079 0.000126231 0.000125636 0.00013413 
0.000109194 0.000124529 0.000127398 0.000128933 0.000126718 
0.000126355 0.000125576 0.00012464 0.000119646 0.000126265 
0.000124227 0.000123953 0.000123669 0.000123369 0.000123364 
0.000124023 0.000127755 0.000130945 0.000125835 0.000139351 
0.000134947 0.000122721 0.000125845 0.000124635 0.000125036 
0.000125907 0.000126139 0.000123057 0.000125987 0.00012593 
0.000125251 0.000125356 0.000115522 0.000131511 0.000123561 
0.000127257 0.000127028 0.000122905 0.000126542 0.000125951 
0.000125404 0.00012682 0.000125877 0.000124131 0.000123833 
0.0001235 0.000123312 0.000123589 0.000125075 0.00012166 
0.000112806 0.000123187 0.00012338 0.000124311 0.000122697 
0.000121776 0.000122629 0.000122923 0.000123541 0.000124234 
0.000123428 0.000124028 0.000123894 0.000123997 0.000123749 
0.000122598 0.000123998 0.000123248 0.000123982 0.000121701 
0.000123917 0.000123942 0.000123922 0.000123904 0.000123609 
0.000120691 0.000120261 0.000123844 0.000122306 0.000123214 
0.000122549 0.000121158 0.000122682 0.000121931 0.000118324 
0.000124787 0.000121387 0.000117635 0.000130636 0.000116711 
0.000132248 0.000117072 0.000131785 0.000116984 0.000131074 
0.000117025 0.00013101 0.000117262 0.000130728 0.000117586 
0.000130272 0.000118111 0.000129797 0.00011837 0.000129676 
0.000122487 0.000130632 0.000118052 0.000134358 0.000128952 
0.000125361 0.000124773 0.000123387 0.000124601 0.000125309 
0.00013179 0.000128225 0.000124082 0.000124851 0.000123865 
0.000124737 0.000126066 0.000121912 0.000124542 0.000124846 
0.000125876 0.000125761 0.000122646 0.000127412 0.00012167 
0.000125637 0.000122463 0.000125269 0.000121037 0.000125787 
0.000123748 0.000124282 0.000132023 0.000124589 0.000123242 
0.00013443 0.000124277 0.000124122 0.000123816 0.000123875 
0.000124132 0.000123574 0.000124463 0.000133609 0.000120448 
0.000121738 0.000124666 0.000123476 0.000134354 0.000125393 
0.000123047 0.000113065 0.000123751 0.000136076 0.000125436 
0.000121233 0.000125378 0.00013174 0.000123539 0.000122372 
0.000113672 0.000130068 0.00011624 0.000122843 0.00012287 
0.000118379 0.00012706 0.000125871 0.000124103 0.000123755 
0.000124253 0.000124259 0.000124315 0.000123997 0.000124336 
0.00012397 0.000123818 0.000123921 0.000123466 0.00012488 
0.000124476 0.000115747 0.0001383 0.000122003 0.000123759 
0.000124248 0.000124015 0.000116862 0.00012451 0.000124191 
0.000122757 0.000117182 0.000124428 0.000124015 0.000124145 
0.000126373 0.000121899 0.000121806 0.000124199 0.000116942 
0.00012662 0.000116981 0.000130989 0.000117239 0.000130723 
0.000117735 0.00013015 0.000118344 0.000129254 0.000118858 
0.000128151 0.000119142 0.000127149 0.000120881 0.000120715 
0.000126163 0.000124989 0.000123454 0.000125773 0.000123759 
0.000123137 0.000125836 0.000124452 0.000123602 0.000123733 
0.000124579 0.000124387 0.000130801 0.000129341 0.000133608 
0.000122613 0.000118496 0.000124917 0.000121786 0.000125457 
0.000124622 0.000116142 0.000121521 0.000124129 0.000125108 
0.00012492 0.000122612 0.000124386 0.000124591 0.000124063 
0.000123556 0.000124477 0.000124157 0.000124629 0.000123536 
0.000124593 0.000125093 0.000123394 0.000123761 0.000124779 
0.000123259 0.000124063 0.00012266 0.000122919 0.000123578 
0.000125622 0.000123123 0.000122159 0.000130214 0.000123177 
0.000124974 0.000122887 0.000123678 0.000123367 0.000124455 
0.000122844 0.000121957 0.000124376 0.000117198 0.000123979 
0.000124286 0.000123718 0.00012383 0.000132145 0.00012378 
0.00012714 0.000123423 0.000121531 0.000115821 0.000123947 
0.000124075 0.000124999 0.000122982 0.000123758 0.000129016 
0.000124493 0.000126283 0.000124453 0.000128663 0.000116421 
0.000117823 0.000116812 0.000131022 0.000117215 0.00013068 
0.000117799 0.000130236 0.000118538 0.000129398 0.000119377 
0.000127937 0.000119931 0.000125874 0.000118795 0.000122196 
0.000123716 0.000124879 0.000125192 0.000128181 0.000124946 
0.000124582 0.000123334 0.000124252 0.000123314 0.000118867 
0.000126633 0.000122365 0.000125469 0.000123908 0.000124226 
0.000124523 0.000124039 0.000123577 0.000126359 0.000124669 
0.000124688 0.000123679 0.000124585 0.000124013 0.000123996 
0.000124252 0.000126557 0.000124639 0.000125002 0.000118932 
0.000124358 0.000125697 0.000117156 0.000121278 0.000123773 
0.000123559 0.000124547 0.00012369 0.000122663 0.000121437 
0.000114971 0.000125815 0.000123022 0.000124865 0.000115124 
0.000122591 0.000123828 0.000129356 0.000125652 0.000118046 
0.000125368 0.000123014 0.00011818 0.0001252 0.000121673 
0.000123237 0.000124508 0.000121042 0.000134559 0.00012543 
0.000121343 0.000126607 0.000123801 0.000123425 0.000122711 
0.000122892 0.000121391 0.000120164 0.000123858 0.000130728 
0.000116807 0.000117815 0.000130263 0.000118615 0.000129752 
0.000119193 0.000129844 0.000119976 0.000127335 0.000119864 
0.000121377 0.000126181 0.000122945 0.000122448 0.000122318 
0.000122987 0.000126672 0.000129042 0.000125895 0.000123824 
0.000140127 0.00012773 0.000126738 0.000130262 0.000129241 
0.00012629 0.000116126 0.000124601 0.000127529 0.000129016 
0.000125135 0.000118312 0.000122683 0.000124838 0.000127497 
0.000125697 0.000124856 0.000125007 0.000123873 0.000121588 
0.000121934 0.000125577 0.000132896 0.000125673 0.000113755 
0.000135273 0.000124934 0.000114139 0.000134572 0.000122964 
0.000125318 0.000126238 0.000119429 0.000125135 0.000115376 
0.0001246 0.000123703 0.000124992 0.00012399 0.000124295 
0.000124881 0.000121064 0.00012711 0.000131511 0.000123282 
0.000125324 0.000122175 0.000122598 0.000120617 0.000127088 
0.00012449 0.000122591 0.000123626 0.000133416 0.000131626 
0.000125525 0.00012311 0.000124162 0.000116649 0.000118975 
0.000123337 0.000129745 0.000118183 0.00012088 0.000130596 
0.000123918 0.000122368 0.000121705 0.000118773 0.0001241 
0.000126518 0.000118265 0.000126908 0.000123631 0.000122243 
0.000127567 0.000121617 0.000123604 0.000124818 0.000118687 
0.000113633 0.000120743 0.000134299 0.000115191 0.000127756 
0.000118322 0.00012337 0.000126076 0.000133185 0.000114677 
0.000129476 0.000119675 0.000123417 0.000123491 0.000119939 
0.000119525 0.000123684 0.000120353 0.000125228 0.000122625 
0.000125183 0.00012486 0.000125309 0.000122916 0.00012668 
0.000130189 0.000127888 0.000121045 0.000118763 0.000128976 
0.000127796 0.000124207 0.000131239 0.000125398 0.000127298 
0.000119008 0.00012057 0.00012922 0.000128389 0.000127447 
0.000123833 0.000109759 0.000125441 0.00013292 0.000128445 
0.000128045 0.000127531 0.000123481 0.000126103 0.000126799 
0.000122921 0.000128153 0.000131523 0.000133221 0.000122147 
0.000117491 0.000135884 0.000125038 0.000116728 0.000123108 
0.000123282 0.000118438 0.000124737 0.000126287 0.000131342 
0.000121714 0.000111564 0.000122894 0.000125927 0.000120329 
0.00012935 0.000125701 0.000124973 0.0001308 0.000119637 
0.000127616 0.000118693 0.000121176 0.000120726 0.000132087 
0.000127478 0.000127935 0.000120214 0.000120981 0.000115022 
0.00011335 0.000128387 0.000116227 0.000127604 0.000112088 
0.000130499 0.000120918 0.000118818 0.000121655 0.000127761 
0.000123207 0.000114416 0.000121607 0.000121943 0.000131765 
0.000122561 0.000122471 0.000127293 0.000126602 0.000127895 
0.000123629 0.000129269 0.000128237 0.000120408 0.000127841 
0.000131339 0.000136042 0.000128849 0.000121696 0.000117517 
0.000118542 0.000124937 0.000112731 0.000127903 0.000127 
0.000125928 0.000127357 
795.997 1010.55 1012.38 1011.18 
1011.61 1011.15 1011.07 1010.86 1020.33 
897.415 880.861 878.202 876.357 882.325 
1095.03 1098.87 1098.9 1099.28 1099.72 
1099.72 1099.57 1099.32 1050.95 1095.09 
1098.2 1098.18 1098.28 1045.8 1075.21 
1098.52 1076.65 1014.47 1076.93 1010.66 
1011.53 1011.42 1010.88 1013.06 1077.49 
1010.98 1042.39 875.91 1045.29 884.612 
1044.43 1041.66 878.789 1077.61 875.131 
1099.41 1099.32 1099.68 1099.73 1099.39 
1099.53 1099.71 1098.52 1098.19 1098.16 
1098.59 1077.62 1039.74 1077.61 1077.51 
1077.46 1077.6 1074.55 1042.19 1097.73 
1097.49 1097.53 1097.6 1097.67 1097.78 
1098.3 1098.28 1097.59 1076.62 1097.54 
1097.54 1097.6 1097.74 1097.98 1098.36 
1098.27 1077.61 1077.59 1097.69 1097.83 
1043.12 1097.8 1097.52 1093.12 1098.78 
1091.49 1091.52 1091.08 1094.66 1091.37 
1095.48 1095.74 1099.17 1091.31 1099.43 
1083.96 1094.74 1094.7 1097.79 1097.92 
1094.79 1098.1 1095.98 1099.09 1098.11 
1091.41 1099.25 1071.11 1095.15 1096.51 
1099.1 1097.42 1099.19 1098.9 1099.21 
1098.08 1095.51 1101.7 1098.29 1098.07 
1091.47 1099.41 1092.45 1099.22 1090.74 
1100.04 1091.54 1099.36 1098.87 1097.59 
1097.49 1095.78 1098.07 1095.94 1099.28 
1097.64 1098.18 1094.23 1099.37 1097.37 
1099.58 1099.36 1099.25 1098.55 1097.46 
1099.14 1099.21 1099.18 1097.58 1097.78 
1099.1 1097.08 1096.8 1098.27 1099.09 
1096.95 1098.91 1098.34 1097.67 1098.44 
1098.47 1097.41 1098.54 1097.58 1097.42 
1097.61 1098.16 1098.07 1099.71 1098.68 
1096.53 1096.58 1099.07 1096.53 1099.77 
1099.21 1096.04 1097.23 1098.36 1098.22 
1098.81 1099.15 1099.3 1097.9 1098.35 
1098.64 1098.94 1095.04 1099.63 1100.22 
1098.52 1098.86 1096.54 1096.46 1099.97 
1098.56 1097.3 1096.53 1099.81 1097.16 
1097.9 1099.22 1096.48 1099.77 1099.25 
1097.31 1099.19 1097.4 1098.4 1098.51 
1098.61 1097.33 1098.71 1098.03 1097.54 
1099.85 1099.76 1097.58 1097.54 1099.97 
1101.18 1099.2 1097.7 1097.56 1098.51 
1096.64 1098.3 1098.29 1099.56 1097.77 
1097.06 1097.34 1097.31 1099.5 1097.18 
1097.88 1099.11 1096.34 1099.64 1096.92 
1100.45 1098.3 1099.36 1096.93 1097 
1099.39 1096.29 1099.18 1097.05 1097.79 
1098.06 1096.83 1099.24 1099.38 1097.17 
1097.14 1095.77 1096.65 1099.82 1099.07 
1099.13 1097.2 1096.95 1099.53 1095.91 
1098.2 1099.42 1099.33 1097.13 1099.15 
1096.93 1097.49 1099.03 1098.19 1098.57 
1099.91 1098.74 1098.58 1097.14 1097.54 
1098.44 1097.39 1097.23 1097.31 1096.51 
1097.83 1098.77 1099.77 1099.66 1099.39 
1097.05 1097.33 1096.77 1097.87 1099.97 
1099.08 1098.48 1099.47 1097.54 1098.72 
1099.37 1100.03 1099.66 1096.93 1099.85 
1097.19 1096.79 1097.35 1097.13 1099.58 
1098.78 1097.63 1099.25 1099.27 1096.84 
1098.79 1099.1 1099.02 1098.41 1096.7 
1097.11 1099.57 1099.49 1099.33 1098.8 
1097.03 1099.57 1096.77 1100.17 1096.9 
1096.87 1099.4 1098.21 1099.61 1099.6 
1097.99 1099.71 1099.82 1096.89 1096.9 
1097.48 1097.2 1098.64 1099.13 1096.73 
1099.13 1097.65 1100.65 1096.72 1095.28 
1097.98 1097.48 1099.99 1096.46 1099.76 
1096.46 1100.48 1095.9 1100.48 1095.94 
1100.33 1096 1100.3 1096.07 1100.24 
1096.62 1100.15 1096.73 1100.21 1096.63 
1100.21 1096.35 1099.91 1096.22 1100.74 
1026.41 838.632 1093.2 898.715 881.585 
874.576 876.711 879.433 879.187 876.087 
871.228 883.176 874.415 1041.99 1029.47 
1094.91 1098.1 1098.49 1098.51 1098.4 
1098.35 1098.22 1098.01 1097.92 1098.43 
1098.26 1098.25 1098.21 1098.15 1098.15 
1098.26 1098.71 1099.08 1098.53 1101.03 
1051.46 1042.38 878.755 1045.23 883.469 
1043.42 873.118 1042.94 879.416 878.369 
872.668 875.583 1095.51 1099.12 1041.3 
1098.47 1098.42 1097.61 1098.37 1098.28 
1098.19 1098.47 1098.61 1098.27 1098.24 
1098.18 1098.15 1098.19 1098.44 1043.74 
1096.37 1043.07 1042.7 1040.63 1041.04 
1097.44 1097.61 1097.66 1097.74 1097.78 
1098.22 1098.34 1098.32 1098.34 1098.29 
1098.1 1039.91 1097.7 1097.81 1097.93 
1098.32 1098.33 1098.32 1098.32 1098.27 
1097.75 1097.48 1041.88 1041.39 1043.02 
1097.5 1097.38 1097.63 1097.95 1096.72 
1094.88 1097.24 1096.17 1100.15 1095.97 
1099.7 1096.12 1099.75 1096.12 1100.3 
1096.14 1100.28 1096.22 1100.22 1096.32 
1100.1 1096.51 1099.95 1096.59 1099.83 
1097.58 1100.09 1095.6 1100.17 1092.91 
1094.6 1094.91 1097.89 1094.9 1096.22 
1099.38 1099.04 1094.37 1094.81 1094.28 
1098.78 1098.98 1097.62 1094.7 1098.13 
1098.96 1098.94 1097.78 1099.17 1097.57 
1098.93 1097.74 1094.45 1097.47 1098.97 
1098.56 1098.34 1095.72 1094.87 1097.87 
1100.17 1098.36 1098.34 1098.28 1098.3 
1098.39 1094.02 1098.04 1100.17 1097.21 
1097.51 1094.9 1097.92 1099.63 1098.89 
1097.86 1095.79 1097.95 1099.42 1098.19 
1097.5 1095.28 1099.82 1097.93 1097.71 
1095.18 1100.54 1096.91 1097.8 1097.83 
1096.86 1096.01 1098.29 1098.66 1098.11 
1098.39 1098.36 1098.35 1098.34 1098.4 
1098.31 1098.29 1098.28 1097.9 1098.58 
1097.84 1097.11 1101.32 1098.06 1098.3 
1098.38 1098.34 1096.55 1098.4 1098.36 
1097.77 1097.07 1098.42 1098.34 1098.37 
1098.35 1097.69 1097.56 1098.77 1096.14 
1099.53 1096.13 1100.28 1096.2 1100.21 
1096.34 1100.09 1096.54 1099.91 1096.76 
1099.64 1097.05 1099.33 1097.6 1098.06 
1099.06 1098.62 1098.08 1098.95 1098.3 
1098.2 1098.96 1098.61 1098.26 1098.29 
1098.55 1098.35 1099.35 1100 1100 
1098.11 1097.05 1098.76 1097.7 1098.89 
1098.75 1096.78 1097.77 1098.68 1098.26 
1098.79 1097.77 1098.39 1098.55 1098.32 
1098.23 1098.42 1098.39 1098.46 1098.57 
1098.04 1098.84 1097.97 1098.01 1098.57 
1098.08 1099.74 1097.82 1098.03 1098.02 
1098.92 1097.88 1097.77 1099.25 1098.77 
1098.63 1098.01 1098.16 1098.09 1098.55 
1097.83 1097.19 1098.37 1096.7 1098.34 
1098.37 1098.16 1098.31 1100.06 1098.27 
1099.09 1097.62 1097.52 1096.96 1098.37 
1098.35 1098.53 1097.83 1098.19 1099.27 
1098.44 1098.67 1098.42 1099.08 1096.83 
1096.27 1096.09 1100.36 1096.19 1100.23 
1096.33 1100.11 1096.53 1099.96 1096.81 
1099.75 1097.11 1099.38 1097.1 1098.36 
1098.88 1098.76 1098.66 1099.07 1098.59 
1098.42 1098.18 1098.37 1098.26 1097.6 
1099.13 1097.79 1098.78 1098.26 1098.53 
1098.42 1098.36 1098.27 1098.13 1098.74 
1098.55 1098.16 1098.56 1098.2 1098.21 
1098.53 1098.39 1098.39 1098.54 1097.61 
1098.16 1098.63 1097.17 1097.5 1098.26 
1098.26 1098.43 1098.55 1097.79 1097.32 
1096.33 1098.93 1098.15 1098.48 1096.99 
1098.12 1098.35 1099.21 1098.64 1097.22 
1098.69 1097.87 1097.5 1098.54 1098.14 
1098.59 1098.26 1098.12 1099.96 1098.87 
1097.26 1098.95 1098.62 1098.01 1097.97 
1097.84 1097.71 1097.44 1097.99 1099.18 
1096.04 1096.33 1100.02 1096.47 1099.95 
1096.58 1099.44 1096.78 1100.23 1096.89 
1097.57 1098.58 1098.39 1097.82 1098.25 
1097.89 1099.12 1099.15 1098.84 1098.04 
1101.33 1098.79 1099.27 1099.31 1098.9 
1098.9 1096.56 1097.86 1098.33 1099.24 
1098.51 1096.73 1098.05 1099.06 1098.65 
1098.43 1098.57 1098.57 1098.2 1097.73 
1098.29 1098.52 1099.93 1098.73 1094.94 
1100 1098.77 1094.71 1099.96 1097.86 
1098.73 1098.6 1097.65 1098.68 1095.66 
1098.43 1098.24 1098.61 1098.22 1098.37 
1098.48 1098.04 1098.46 1099.56 1098.17 
1098.57 1098.08 1097.79 1097.59 1098.84 
1098.44 1098.07 1098.1 1100.05 1099.66 
1098.63 1098.12 1099.97 1096.52 1096.64 
1097.82 1100.16 1097.35 1097.43 1099.01 
1098.18 1098.87 1098.08 1097.26 1098.36 
1098.89 1097.29 1099.06 1098.49 1097.87 