
TITLE     = "DG2D to Tecplot"
VARIABLES = "X"
"Y"
"RHO"
"U"
"V"
"VELOCITY_MAG"
"P"
"T"
"THETA1"
"THETA2"
ZONE T="ZONE 1"
STRANDID=0
ZONETYPE=FEQuadrilateral
DATAPACKING=BLOCK
VARLOCATION=([3-10]=CELLCENTERED)
DT=(SINGLE SINGLE SINGLE SINGLE SINGLE SINGLE SINGLE SINGLE SINGLE SINGLE)

Nodes=2114, Elements=4004
-3.88578e-16 -0.5 -3.88578e-16 0.5 
-2 6 6 -2 -1.8 
-1.6 -1.4 -1.2 -1 -0.8 
-0.6 -0.4 -0.2 -6.66134e-16 0.2 
0.4 0.6 0.8 1 1.2 
1.4 1.6 1.8 2 2.2 
2.4 2.6 2.8 3 3.2 
3.4 3.6 3.8 4 4.2 
4.4 4.6 4.8 5 5.2 
5.4 5.6 5.8 6 6 
6 6 6 6 6 
6 6 6 6 6 
6 6 6 6 6 
6 6 5.8 5.6 5.4 
5.2 5 4.8 4.6 4.4 
4.2 4 3.8 3.6 3.4 
3.2 3 2.8 2.6 2.4 
2.2 2 1.8 1.6 1.4 
1.2 1 0.8 0.6 0.4 
0.2 -2.66454e-15 -0.2 -0.4 -0.6 
-0.8 -1 -1.2 -1.4 -1.6 
-1.8 -2 -2 -2 -2 
-2 -2 -2 -2 -2 
-2 -2 -2 -2 -2 
-2 -2 -2 -2 -2 
0.480769 0.461538 0.442308 0.423077 0.403846 
0.384615 0.365385 0.346154 0.326923 0.307692 
0.288462 0.269231 0.25 0.230769 0.211538 
0.192308 0.173077 0.153846 0.134615 0.115385 
0.0961538 0.0769231 0.0576923 0.0384615 0.0192308 
-0.0192308 -0.0384615 -0.0576923 -0.0769231 -0.0961538 
-0.115385 -0.134615 -0.153846 -0.173077 -0.192308 
-0.211538 -0.230769 -0.25 -0.269231 -0.288462 
-0.307692 -0.326923 -0.346154 -0.365385 -0.384615 
-0.403846 -0.423077 -0.442308 -0.461538 -0.480769 
-0.480769 -0.461538 -0.442308 -0.423077 -0.403846 
-0.384615 -0.365385 -0.346154 -0.326923 -0.307692 
-0.288462 -0.269231 -0.25 -0.230769 -0.211538 
-0.192308 -0.173077 -0.153846 -0.134615 -0.115385 
-0.0961538 -0.0769231 -0.0576923 -0.0384615 -0.0192308 
0.0192308 0.0384615 0.0576923 0.0769231 0.0961538 
0.115385 0.134615 0.153846 0.173077 0.192308 
0.211538 0.230769 0.25 0.269231 0.288462 
0.307692 0.326923 0.346154 0.365385 0.384615 
0.403846 0.423077 0.442308 0.461538 0.480769 
5.72385 5.30239 4.89897 4.50011 4.10057 
3.70042 3.30022 2.9001 2.50002 2.09998 
1.69987 1.29959 0.899387 0.499624 0.1002 
-0.299216 -0.697714 -1.09533 -1.49217 -1.82344 
-1.82434 -1.82548 -1.82456 -1.8159 -1.81741 
-1.82387 -1.81566 -1.80616 -1.71952 -1.3046 
-0.902371 -0.499753 -0.099202 0.300637 0.699091 
1.09881 1.49944 1.89982 2.29992 2.69993 
3.09989 3.49972 3.89924 4.29824 4.69689 
5.09459 5.49189 5.82349 5.82544 5.8276 
5.82715 5.82623 5.82537 5.8267 5.8298 
5.82305 0.00947464 0.0489714 0.0884059 0.126651 
0.165047 0.20452 0.242457 0.2809 0.318513 
0.358182 0.396157 0.434793 0.47642 0.495916 
0.454316 0.415052 0.377623 0.338606 0.300022 
0.261367 0.222523 0.184031 0.146064 0.107189 
0.0683474 0.029974 -0.0103137 -0.0493979 -0.0877614 
-0.126883 -0.165444 -0.203096 -0.242571 -0.281253 
-0.319358 -0.35785 -0.397293 -0.435314 -0.475246 
-0.497601 -0.45516 -0.415441 -0.377261 -0.338366 
-0.299396 -0.260755 -0.223179 -0.184467 -0.14592 
-0.107556 -0.0681009 -0.0295635 -0.0095294 5.51141 
5.09906 4.69958 4.30042 3.90049 3.50029 
3.10017 2.70005 2.3 1.89996 1.49978 
1.09948 0.69948 0.299897 -0.0995535 -0.498587 
-0.896588 -1.29506 -1.67049 -1.81703 -1.82623 
-1.82515 -1.82178 -1.81163 -1.82256 -1.82162 
-1.80819 -1.82403 -1.51042 -1.10465 -0.700563 
-0.299389 0.100857 0.500014 0.898679 1.29918 
1.69971 2.0999 2.49994 2.89993 3.29985 
3.69958 4.09888 4.49772 4.89574 5.29441 
5.67045 5.81752 5.82799 5.82729 5.82679 
5.82563 5.82569 5.82828 5.8283 5.83215 
0.0292323 0.0685155 0.107218 0.146233 0.184262 
0.223429 0.261546 0.299387 0.338706 0.376789 
0.415233 0.455445 0.52247 0.498078 0.47488 
0.434955 0.396518 0.358438 0.319232 0.280312 
0.24186 0.203012 0.164517 0.126384 0.0880488 
0.0488118 0.00954085 -0.030083 -0.0689684 -0.106963 
-0.146126 -0.184424 -0.222849 -0.261363 -0.299834 
-0.338205 -0.377549 -0.416272 -0.455085 -0.521639 
-0.49674 -0.47556 -0.434755 -0.396702 -0.357898 
-0.319486 -0.279606 -0.241793 -0.204077 -0.165606 
-0.126443 -0.0874822 -0.0488085 0.519534 -0.524834 
5.64874 4.79893 -1.21505 4.40103 -1.6546 
4.00124 5.19548 3.60075 3.00025 3.20036 
4.2014 2.60006 2.19992 1.79974 1.39921 
0.998683 0.59911 0.200238 -0.198906 -0.596983 
-0.991766 -1.39169 -1.63966 4.60025 -1.61668 
-1.64751 -0.599435 -1.64876 -1.62582 -1.64895 
-1.64018 -1.60538 -1.60817 -0.198469 4.99682 
-1.40423 5.65308 -0.398823 0.201819 0.598786 
0.996792 1.39846 1.7995 2.19982 2.59987 
2.99984 3.39959 3.79885 4.19716 4.59472 
4.99022 5.39109 5.61665 5.65054 5.40198 
5.63029 0.0797874 5.65415 5.65555 5.65168 
5.6545 5.65153 5.65798 5.65463 0.119221 
0.0193083 0.059724 0.0998102 0.234669 0.27307 
0.176595 0.215595 0.196415 0.254305 0.542502 
0.310951 0.350229 0.388603 0.427374 0.469555 
0.518088 0.445878 0.408245 0.370738 0.389225 
0.331082 0.351536 0.29235 0.311702 0.25357 
-0.0808336 0.214287 0.272599 0.117977 -0.234916 
0.0405102 0.137967 -0.000173609 0.0600071 -0.0607534 
-0.0413883 -0.195837 -0.13868 -0.176085 -0.158051 
-0.21433 -0.548768 -0.273257 -0.311674 -0.350111 
-0.390254 -0.429744 -0.467321 -0.511703 -0.490782 
-0.447323 -0.40848 -0.370356 -0.330686 -0.290078 
-0.197213 -0.252741 -0.216158 -0.157218 -1.65058 
-0.0598926 3.80092 3.40049 0.427435 -1.6497 
-0.801452 5.65441 0.0396833 0.157726 0.234009 
0.51086 -0.11918 -0.236107 -0.515847 -0.468288 
-0.270329 -0.118618 5.6575 2.39999 2.80013 
1.99987 1.59956 1.19884 0.798695 0.39955 
0.000819968 -0.398344 -0.794786 -1.18861 -1.65091 
-1.62475 -1.64256 -1.64822 -1.62457 0.797005 
0.400952 -1.00715 0.00179258 1.19762 1.59906 
1.99967 2.39984 2.79989 3.19972 3.59938 
3.99826 4.39584 4.79313 5.18738 5.65029 
5.65418 5.66162 0.544805 0.139135 0.555029 
0.291954 0.330742 0.369549 0.407654 0.447646 
0.493927 0.0199334 0.487894 -0.554301 0.174908 
0.0802138 0.0999129 -0.0210451 -0.543517 -0.0997069 
-0.253529 -0.292764 -0.331065 -0.370223 -0.410581 
-0.448041 -0.489926 -0.42708 -0.389737 -0.350733 
-0.310735 -0.137745 -0.176812 -0.0397455 -0.0794014 
0.000488529 -0.534851 0.19527 0.46657 0.155924 
0.538682 -0.0193215 5.48059 5.48415 1.4988 
2.90027 4.10268 2.29984 -1.45816 1.89954 
5.47852 1.09738 -0.497598 0.698138 -0.891469 
-0.0980917 0.484121 0.300025 -1.27284 -0.695043 
-1.08396 -1.47329 2.09948 -1.48984 5.27254 
4.49251 -1.4672 3.29947 -1.47677 -0.0117463 
5.09215 -1.36931 -0.0972109 0.101329 -0.29765 
-1.11665 -0.189865 -1.45449 0.501763 0.89721 
0.303643 1.09444 1.49764 -0.115427 2.49972 
2.89977 3.09964 -1.42272 3.69866 4.09633 
4.2943 0.151663 -0.34373 5.49288 5.28174 
5.4808 5.47658 3.1005 5.47778 5.46783 
5.4821 5.47454 5.08264 5.48972 4.8885 
0.569681 0.0715811 -0.497636 0.419797 0.246764 
5.47401 4.30302 5.4996 0.131654 0.285236 
0.361819 0.184928 0.399933 -0.244416 -1.47079 
2.29969 0.0101491 -0.481516 0.303597 -0.578229 
0.30317 0.380549 -0.0940603 1.89924 -1.47157 
-0.0733235 -0.0530355 0.541179 -0.25442 2.49999 
-0.384582 -0.324603 0.893344 -0.285493 0.511004 
-0.305007 0.0314241 -0.360942 -0.509884 -0.404146 
-0.481253 -0.12911 -0.4378 -0.404047 -0.534675 
1.69936 3.50114 0.324237 -0.0990666 3.30071 
0.00960725 3.7014 -1.47872 -0.21028 -0.050955 
-0.364255 -0.188411 0.0517001 -0.697469 0.129233 
-0.032199 5.48182 -0.148266 -1.4745 0.226324 
0.266543 5.47592 0.2061 -0.231508 -0.506211 
-0.459403 4.50235 4.70089 1.29793 0.573505 
0.0927812 0.439709 -0.566187 -0.322306 2.09966 
2.70014 0.498765 -0.298353 2.69979 -0.13238 
1.29643 -1.42917 -1.45457 0.693083 -1.47362 
0.103333 4.89842 3.89773 -0.168759 -0.900837 
4.69097 0.322607 1.6985 3.49915 0.170628 
-1.47694 5.48246 0.567582 0.521522 0.111855 
0.441576 0.586577 0.246172 0.206525 0.16554 
-0.0098484 -0.265118 0.461069 -0.427438 3.90202 
0.402063 0.345005 0.365244 -0.581621 -0.573429 
-0.166683 -0.381486 -0.342448 -0.278471 -0.420531 
-0.0296876 -0.0706089 0.0300616 0.420801 -0.300656 
-0.453518 0.0725476 0.342133 -0.208524 -0.564687 
-0.226313 0.112012 0.265483 0.383178 0.0507354 
0.226273 0.45777 0.147183 -0.110241 -0.149123 
0.498759 -0.253427 0.607018 5.29535 -0.598231 
5.31521 4.39 3.1993 1.19517 0.435687 
-0.38126 0.568502 -0.42507 -0.395405 -1.30437 
2.19921 4.19322 4.80311 0.599876 0.795849 
-1.34319 0.00492053 1.79793 0.201697 -0.196697 
3.4016 -0.39912 5.31112 1.19188 0.594069 
3.59824 0.0199262 0.99422 2.59955 3.99569 
-0.179293 0.188061 -0.787309 5.18873 5.30652 
5.35402 5.3452 0.546114 0.166533 4.98705 
5.30595 5.29821 4.78642 5.17745 0.144236 
-0.196924 3.00054 4.20566 3.79703 0.296891 
2.99958 -0.605214 3.80284 -0.394131 -0.608962 
0.0417029 -1.28524 2.39974 0.284483 -0.114254 
1.99908 1.5967 1.99894 -1.29359 0.0934653 
-0.0885033 0.398926 4.58737 -0.0659127 2.79966 
-0.343364 4.40637 -0.267909 1.39698 -0.992833 
0.315684 -1.20904 -0.0907471 3.60218 -1.31386 
-0.201629 -0.369832 3.20095 -0.59744 -0.140079 
-1.30551 0.239007 -0.157436 5.00146 0.195659 
-1.30638 0.476599 -0.47251 -0.403426 0.988651 
-0.555619 2.60009 2.19938 4.60521 0.403758 
2.39949 4.00421 0.41401 5.30851 -0.446219 
0.605421 5.29785 0.0860297 0.0041369 5.32484 
-0.358444 0.532318 -0.205207 -0.989035 -0.522198 
0.131347 -1.17508 0.461997 0.622496 -1.29261 
5.30228 0.206398 -1.31037 0.597493 0.510606 
3.39899 0.0185076 -0.29755 5.30976 -0.592447 
0.787272 -0.144625 -0.503176 -0.419584 0.189821 
5.30288 -0.792972 -1.30745 -0.277491 0.215641 
2.80035 0.239589 0.12468 0.460023 0.396546 
0.314586 -0.318907 1.39497 -5.07736e-05 0.338649 
-0.000725742 1.59819 -0.603876 0.361287 -1.2902 
1.79885 -0.600757 0.17342 -0.176899 -0.538781 
-0.0212322 -0.244821 -0.467962 -1.26431 -0.040572 
-0.447774 0.295456 -0.0625481 0.218115 -1.31192 
0.41404 -0.29077 0.0645868 0.352984 -0.228337 
-0.122906 0.260132 0.380888 0.580375 0.261306 
5.3104 0.280693 -0.222907 -0.0435646 0.433788 
0.0626782 -0.336577 0.371798 0.108108 5.13377 
0.107677 -0.889462 0.558701 -0.539398 0.642515 
2.29909 -1.08812 -0.43661 1.28895 2.70035 
0.107484 0.635024 1.08923 -1.29792 4.71051 
0.11063 -1.14664 0.600021 2.6994 0.485152 
3.29858 0.178053 -0.296106 0.496631 0.0402071 
5.14023 5.12582 -0.578793 1.08495 0.277154 
-0.636382 -0.081843 5.14124 -0.639911 2.29879 
3.70414 -0.376346 0.152474 0.15501 0.679438 
0.524634 0.88028 -0.300214 4.88154 3.89445 
0.437081 -0.29821 -0.267919 3.69649 -1.15436 
5.12375 3.30199 -0.632162 -0.49347 -0.00136319 
3.09918 -0.313401 -0.687984 -0.643869 -1.12129 
0.0272986 1.89749 0.392027 1.69542 2.09837 
0.299497 1.29318 2.8994 0.309487 -0.587085 
-0.0905733 0.496857 3.49775 -0.704553 4.31182 
5.11329 -0.0184332 -0.874556 5.13069 1.49322 
-0.501761 5.13635 -0.189225 -0.0934411 5.10716 
-0.49054 0.334823 4.28857 2.49984 3.50295 
0.696823 4.51283 0.498288 2.49917 2.90073 
5.1422 -0.474209 0.476167 0.517324 0.612176 
0.257665 -0.232869 -1.17379 0.642139 0.306844 
0.105942 1.89769 0.887925 -0.358976 -1.15288 
-1.09368 -1.13496 -0.465699 0.484663 0.648473 
0.407128 0.448127 0.0257026 -0.161971 0.0876648 
-0.622135 -0.103097 -0.104923 2.09837 -0.0825306 
4.907 0.354669 -0.504431 0.353591 0.231454 
0.130773 0.659928 0.300942 -0.330855 3.1011 
-0.000198969 0.329551 1.49581 -0.522097 -0.638965 
-1.15221 0.0544098 -0.490518 -0.448485 -1.07179 
4.67857 0.182458 -0.197763 4.09224 -0.352593 
4.10863 -0.407199 -0.0570713 0.203676 5.12327 
-0.053112 0.207238 0.232322 0.410743 -0.281829 
-0.382716 -1.11689 0.25639 0.380447 0.56508 
4.48334 0.134646 -0.213301 -0.400721 -0.424817 
0.0791138 -0.133108 3.90568 5.1156 -0.564483 
-0.0277708 -0.259277 1.69697 0.280752 -0.404147 
-1.17262 -0.858316 -0.591589 3.60532 2.1978 
-0.108139 0.280836 2.60015 0.980682 -0.23533 
4.92741 2.39831 0.325911 0.108116 4.99169 
1.38572 -0.164726 3.3974 -0.668029 4.97887 
0.207637 -0.602615 1.17915 2.39902 -0.62049 
0.010786 3.99075 0.504099 -0.517251 0.382269 
0.637921 0.770712 -0.2217 0.972752 -0.460509 
4.6267 0.68377 0.672424 3.79296 0.0151336 
0.469406 -1.00666 4.95824 -0.383852 0.687014 
-0.287061 3.19826 -0.687458 -0.990333 0.0409382 
0.453205 -0.450773 -0.196743 0.680983 2.1977 
-0.254802 0.15664 -0.786901 0.100106 2.99892 
1.79377 3.20223 1.59085 -0.140755 -0.984791 
-0.601118 0.00832989 -0.670755 1.99657 4.95464 
-0.556753 -0.0301817 -1.03636 1.18689 2.7991 
0.589861 -0.674864 3.40358 0.591706 0.0517238 
-0.929961 2.80077 -0.146164 -0.185423 -0.119092 
0.605623 4.21694 0.0684711 4.96781 1.79488 
-0.384827 0.410692 4.95224 -1.02073 0.307168 
0.544089 -0.683822 -0.533314 -1.15876 0.0803668 
-0.651933 3.59551 0.337478 -0.0763396 0.334144 
-0.481191 0.68745 0.58 -0.138344 -0.492682 
0.253646 -0.318963 0.400335 -0.350711 0.130714 
-0.040764 -1.14637 0.700568 4.38247 0.0101248 
-0.189074 0.644305 -0.683407 -0.305394 1.39079 
0.281259 0.497639 0.541738 0.207445 0.129441 
-0.273361 0.160791 2.59884 0.404787 4.18786 
-0.95913 -0.369159 4.92465 -0.423783 -0.0773354 
4.76075 0.188186 0.194819 4.9618 0.221651 
-1.05307 0.405115 0.248685 0.788163 0.369952 
-0.20209 -0.396255 3.80734 0.0378002 1.99613 
4.42356 3.00142 4.97226 -0.0691797 0.0707254 
-0.297543 0.163162 -0.172667 4.01126 4.08516 
0.432911 -0.590716 1.59337 0.431529 -0.450139 
3.69125 -0.328638 1.27423 1.89218 -0.667208 
4.79875 2.90151 -0.626136 0.187218 2.29722 
0.369872 2.49942 -0.0181536 0.124083 0.100471 
4.81893 -0.487477 -0.102503 0.66605 -0.737223 
-0.300974 0.865043 0.163815 0.0267095 4.54833 
-0.10785 3.29654 -0.42334 0.735143 0.87257 
-0.452973 0.489057 -1.01397 -0.0983065 3.88773 
4.94005 -0.853516 -0.0946363 -0.096535 2.49815 
2.29692 -0.962655 -0.702506 4.80426 3.1025 
3.09778 -0.666653 0.574759 2.70062 -0.250176 
1.89152 1.06931 1.68737 0.686997 4.5733 
0.220002 -0.287816 2.09536 -0.492805 0.629068 
0.111762 4.8321 1.08239 0.314219 -0.40745 
-0.121547 4.76006 0.300334 -0.323524 0.419826 
-0.0478113 -0.345211 3.50637 -0.716378 0.685333 
2.89861 3.49458 -1.26332 3.304 -0.479368 
-0.731705 2.09472 0.320522 -1.0402 4.7974 
-0.0528501 4.77207 -0.228415 -0.881379 4.28321 
0.475792 -0.883281 -0.825457 0.390544 -0.945469 
-0.247796 1.68946 0.523345 0.153477 0.275413 
-0.176906 0.358272 -1.04922 -0.736861 -0.0871073 
-0.834203 -0.679109 0.273532 -0.707856 -0.00469697 
4.12048 -0.0709361 0.0178731 -0.255237 -0.157374 
-0.140419 -0.304918 0.724548 -0.387724 -0.370215 
-0.0147042 0.451728 0.711685 -0.287977 0.244693 
-0.016162 4.47946 -0.0366994 0.689261 4.70294 
0.282432 0.53312 1.2793 4.33127 0.732089 
0.123295 0.716151 -0.274797 -0.191814 2.69842 
-0.576645 0.507299 -0.719687 1.48035 0.30737 
-0.52957 -0.737664 0.742318 0.57614 -0.490169 
-0.533249 4.7834 0.491854 0.391644 3.70909 
-0.214169 -0.223457 0.0888042 4.75044 -0.936383 
-0.932482 0.204216 -0.710811 0.0182656 0.173834 
-0.646424 -0.649931 0.34943 -0.213905 0.0581686 
-0.433011 -0.395161 2.80109 2.19402 4.17708 
0.213237 -0.19757 0.654318 0.348959 -0.420069 
2.39768 0.147184 0.0539557 0.121204 -0.0978984 
0.773947 -0.483453 1.98878 2.79837 -0.33652 
1.57315 3.91341 -0.352541 4.45237 -0.795114 
-0.452295 -0.0344389 0.615007 4.66638 0.276357 
0.424215 0.412253 -0.744111 0.512946 2.59974 
2.39678 4.23238 4.59925 0.315974 3.00274 
3.19539 0.747147 0.961064 0.320138 -0.105762 
1.16305 2.59818 -0.759731 1.48644 -0.582084 
1.36275 0.981837 1.78288 3.20469 2.19426 
-0.569611 -0.0196865 -0.905138 0.228826 0.01601 
-0.939314 0.465735 0.678357 2.99748 3.58887 
0.759357 3.4069 0.205872 -0.196392 -0.0719387 
-0.729363 0.590486 0.0889263 -0.835735 -0.378917 
-0.0577011 4.59463 -0.732472 0.399568 -0.709304 
0.304367 -0.247245 0.552754 0.138399 4.38065 
0.750965 1.98966 0.00227203 3.97843 0.189013 
-0.320302 1.16927 -0.141974 -0.778123 -0.318905 
-0.789761 -0.388918 -0.386492 -0.177399 0.572235 
-0.800104 -0.495189 0.258727 3.78425 0.578865 
0.45228 4.55289 4.02162 3.61088 3.39303 
0.78193 -0.0311441 -0.28307 4.64653 0.387947 
0.106984 -0.758928 1.78465 0.0355968 -0.209234 
0.617603 -0.245977 0.797521 -0.517966 4.60282 
0.743628 0.0462476 -0.414465 0.429602 0.107854 
-0.774253 -0.5974 -0.343567 2.4992 0.50965 
0.495504 0.231833 -0.303056 -0.664162 1.25488 
0.28721 -0.179187 -0.0106287 -0.239041 4.61488 
0.0791744 -0.631665 0.712391 0.366934 -0.558016 
-0.261871 0.478953 0.189772 1.05795 -0.780341 
2.09042 -0.13253 -0.861417 2.29476 -0.856028 
-0.349544 -0.834817 2.69861 0.306298 1.66454 
2.08587 3.81518 -0.802141 0.28041 0.142358 
-0.711463 0.909566 0.508099 -0.812522 0.260798 
-0.767009 -0.276189 -0.689809 2.49718 -0.0986969 
0.260598 2.90207 0.798124 0.759048 3.28972 
-0.31917 -0.796046 1.37434 -0.663079 -0.611756 
-0.27991 1.45281 0.663418 1.8773 3.68151 
-0.461529 3.10618 -0.785586 0.238032 2.29443 
0.850065 3.09425 2.89766 0.593447 0.336714 
0.645071 0.0070563 0.43003 0.65492 -0.124957 
0.130886 3.30948 0.815781 3.48678 1.07531 
4.34087 0.536703 -0.548864 0.364911 0.0691174 
-0.282009 -0.891237 4.43343 -0.742026 0.734782 
0.673978 -0.378533 0.771566 -0.0782935 4.06198 
-0.308056 -0.858629 -0.410937 -0.125813 1.25418 
0.350999 0.219057 0.778266 3.87281 -0.0349352 
0.446612 0.0141859 0.0338077 3.50977 4.2559 
-0.840777 -0.093851 0.126029 0.828451 -0.689218 
2.6992 0.384916 -0.365979 1.57944 -0.0553429 
1.88121 -0.406813 0.151684 -0.44656 0.515224 
0.811473 0.171771 -0.557608 0.214254 4.42058 
-0.875481 -0.177728 0.0089478 0.0789712 0.834563 
0.842116 -0.404752 4.45301 -0.524104 4.13582 
0.597544 -0.469506 0.877101 -0.229424 -0.614568 
-0.59166 1.15066 0.808144 -0.198928 -0.263753 
0.395294 0.565024 0.496695 2.18492 -0.121982 
0.738016 0.983262 -0.202107 0.233095 -0.334175 
-0.48745 0.634278 0.289278 3.37985 2.58984 
3.96218 1.75733 2.19484 -0.614521 -0.491317 
3.21748 3.18328 2.79629 -0.280173 0.717092 
-0.501805 0.885769 0.120987 4.25921 -0.359974 
2.39347 -0.158765 -0.326082 0.4398 0.110841 
-0.42871 1.96806 1.54265 -0.317286 0.3951 
0.20178 2.80092 3.00745 0.696232 0.578688 
1.33812 2.60732 2.99376 0.263167 0.64407 
0.319659 0.0555637 0.989132 -0.322793 -0.072621 
0.150038 3.77433 0.451144 0.560422 4.43171 
-0.198966 3.57952 0.443696 0.667412 -0.165317 
-0.207433 -0.51483 -0.681909 -0.550428 0.038518 
-0.431146 0.33737 0.624038 0.797679 0.18032 
-0.314029 3.41852 1.15009 2.40062 -0.0213539 
1.45809 -0.0622407 0.815882 -0.547038 -0.616934 
0.322466 -0.2451 0.240511 0.434251 0.341697 
-0.167723 4.13018 -0.173462 -0.374427 -0.355264 
1.99147 0.372447 0.692817 0.124282 0.881767 
0.0606388 3.71645 -0.126787 0.955644 0.0358292 
0.950604 -0.0385233 -0.478687 0.0988676 -0.229768 
0.865104 0.491164 0.856492 -0.389252 3.92211 
1.67395 -0.42584 0.0215089 0.493823 -0.424977 
2.29501 0.879238 -0.513009 4.05523 0.905643 
2.29424 1.22108 0.118906 1.30041 -0.112218 
0.212012 0.777671 0.160037 -0.0950853 -0.241863 
0.29359 -0.348938 0.898475 3.26375 -0.0133508 
0.117818 4.2729 0.355156 2.67076 0.390695 
-0.0304015 0.152548 4.22117 0.818121 3.1316 
-0.184631 -0.390159 -0.0873165 2.05616 1.6301 
2.46914 3.88005 1.43016 2.90023 1.83691 
0.299688 0.0111024 1.05829 2.72778 3.0682 
0.396445 0.460072 0.960668 0.0567518 -0.451002 
0.222157 0.407027 0.167775 0.698662 0.224401 
1.0289 2.89827 0.561048 1.06359 3.6779 
0.767594 0.591653 -0.312616 3.3418 1.20636 
0.749962 -0.157636 0.875568 0.671327 2.52678 
0.891373 1.01785 -0.0845057 -0.390865 0.930675 
0.387872 3.46763 -0.363326 1.76267 -0.273036 
2.12009 3.60306 -0.600268 0.0852413 4.08223 
-0.284097 0.270035 -0.33243 0.961481 0.522413 
0.911476 -0.392397 -0.136883 -0.4247 1.42916 
0.837763 0.976129 -0.423599 0.977717 3.80253 
1.32589 1.71018 1.08368 0.958077 1.57139 
1.91111 3.55283 1.13199 -0.229661 1.03802 
1.50356 1.32876 1.10802 1.04334 1.21611 
1.1116 1.60727 4.00739 1.46806 1.34711 
1.18318 0.985054 1.22257 1.06629 1.12915 
-0.05 2.27374e-15 0.05 2.27374e-15 
-2 -2 2 2 2 
2 2 2 2 2 
2 2 2 2 2 
2 2 2 2 2 
2 2 2 2 2 
2 2 2 2 2 
2 2 2 2 2 
2 2 2 2 2 
2 2 2 1.8 1.6 
1.4 1.2 1 0.8 0.6 
0.4 0.2 2.44249e-15 -0.2 -0.4 
-0.6 -0.8 -1 -1.2 -1.4 
-1.6 -1.8 -2 -2 -2 
-2 -2 -2 -2 -2 
-2 -2 -2 -2 -2 
-2 -2 -2 -2 -2 
-2 -2 -2 -2 -2 
-2 -2 -2 -2 -2 
-2 -2 -2 -2 -2 
-2 -2 -2 -2 -2 
-2 -1.8 -1.6 -1.4 -1.2 
-1 -0.8 -0.6 -0.4 -0.2 
1.9984e-15 0.2 0.4 0.6 0.8 
1 1.2 1.4 1.6 1.8 
0.00192308 0.00384615 0.00576923 0.00769231 0.00961538 
0.0115385 0.0134615 0.0153846 0.0173077 0.0192308 
0.0211538 0.0230769 0.025 0.0269231 0.0288462 
0.0307692 0.0326923 0.0346154 0.0365385 0.0384615 
0.0403846 0.0423077 0.0442308 0.0461538 0.0480769 
0.0480769 0.0461538 0.0442308 0.0423077 0.0403846 
0.0384615 0.0365385 0.0346154 0.0326923 0.0307692 
0.0288462 0.0269231 0.025 0.0230769 0.0211538 
0.0192308 0.0173077 0.0153846 0.0134615 0.0115385 
0.00961538 0.00769231 0.00576923 0.00384615 0.00192308 
-0.00192308 -0.00384615 -0.00576923 -0.00769231 -0.00961538 
-0.0115385 -0.0134615 -0.0153846 -0.0173077 -0.0192308 
-0.0211538 -0.0230769 -0.025 -0.0269231 -0.0288462 
-0.0307692 -0.0326923 -0.0346154 -0.0365385 -0.0384615 
-0.0403846 -0.0423077 -0.0442308 -0.0461538 -0.0480769 
-0.0480769 -0.0461538 -0.0442308 -0.0423077 -0.0403846 
-0.0384615 -0.0365385 -0.0346154 -0.0326923 -0.0307692 
-0.0288462 -0.0269231 -0.025 -0.0230769 -0.0211538 
-0.0192308 -0.0173077 -0.0153846 -0.0134615 -0.0115385 
-0.00961538 -0.00769231 -0.00576923 -0.00384615 -0.00192308 
1.82377 1.82646 1.82807 1.82632 1.82572 
1.82605 1.82641 1.82662 1.82675 1.82695 
1.82735 1.82782 1.82779 1.82708 1.82635 
1.82644 1.82781 1.82947 1.82183 1.723 
1.30025 0.896944 0.497543 0.0953864 -0.292066 
-0.693196 -1.09481 -1.49231 -1.82572 -1.83449 
-1.82946 -1.82937 -1.82912 -1.82829 -1.82762 
-1.82779 -1.82742 -1.82697 -1.82679 -1.82682 
-1.82689 -1.82696 -1.82716 -1.82762 -1.82817 
-1.8296 -1.8226 -1.72364 -1.30187 -0.898233 
-0.498841 -0.099088 0.30027 0.69843 1.09576 
1.49262 0.0668642 0.0650547 0.0617142 0.0565917 
0.0521379 0.0494111 0.0449006 0.0400721 0.0363452 
0.0334957 0.0295539 0.0253227 0.0223769 -0.0205405 
-0.0224648 -0.0266779 -0.0311985 -0.0359931 -0.0398685 
-0.0437956 -0.0483093 -0.0509497 -0.0534951 -0.0575998 
-0.0636643 -0.0660444 -0.0673458 -0.0652061 -0.0612225 
-0.0553394 -0.0523189 -0.0485009 -0.0440487 -0.04068 
-0.0365639 -0.0335702 -0.0300276 -0.0244586 -0.0226339 
0.0199925 0.023526 0.0258953 0.0313705 0.0359175 
0.0391411 0.0411133 0.0471661 0.0510432 0.0541122 
0.0578587 0.062303 0.0648587 0.0666547 1.81826 
1.82887 1.82703 1.82588 1.82588 1.82627 
1.82652 1.8267 1.82684 1.82711 1.82758 
1.82785 1.82749 1.82665 1.82625 1.82697 
1.8288 1.82727 1.83121 1.50981 1.09677 
0.697603 0.296823 -0.0921612 -0.492864 -0.89406 
-1.29581 -1.67118 -1.82769 -1.82977 -1.82956 
-1.82932 -1.82871 -1.82775 -1.82775 -1.82763 
-1.82714 -1.82684 -1.82679 -1.82685 -1.82691 
-1.82703 -1.82735 -1.82786 -1.82881 -1.82784 
-1.83185 -1.51104 -1.0984 -0.698629 -0.298895 
0.100746 0.499517 0.89705 1.2954 1.67084 
0.0659468 0.0635347 0.0587691 0.0546149 0.0509258 
0.047707 0.0422959 0.037921 0.0350369 0.0313208 
0.0271473 0.0240856 -0.0175468 0.0197281 -0.0217838 
-0.0246971 -0.0287893 -0.0338455 -0.0384188 -0.0417876 
-0.0459622 -0.049806 -0.0525064 -0.0546407 -0.060957 
-0.0649992 -0.0675803 -0.066259 -0.0635895 -0.058479 
-0.0535718 -0.0503651 -0.0462291 -0.0421796 -0.0387759 
-0.0348739 -0.0317078 -0.0274441 -0.0228455 0.0130073 
-0.020214 0.0221148 0.0243149 0.0280627 0.0336802 
0.0378027 0.0408577 0.0433271 0.0494632 0.0525054 
0.0559227 0.0605904 0.0635338 0.0116952 -0.0157356 
-1.40105 1.65463 -1.65943 1.65186 1.19061 
1.65145 1.65963 1.65231 1.65314 1.65295 
1.65128 1.65344 1.65377 1.65447 1.65557 
1.65581 1.65459 1.65275 1.65244 1.65433 
1.65835 1.65188 0.196379 1.65304 1.62785 
1.3981 -1.65916 0.395755 -0.183772 -0.586298 
-0.985145 -1.39719 -1.62125 -1.65869 1.65715 
-1.67958 -0.19795 -1.65877 -1.65704 -1.65459 
-1.6559 -1.65524 -1.65411 -1.6536 -1.6536 
-1.65374 -1.65385 -1.65409 -1.65478 -1.65579 
-1.65801 -1.65365 -1.62963 0.201314 1.65059 
1.61785 0.0843574 -0.397817 -0.994985 0.00174112 
-0.597518 0.598893 0.993175 1.3929 0.0783667 
0.0867613 0.0865264 0.081632 0.0678816 0.0611993 
0.0716681 0.0699994 0.0707005 0.0647174 0.000896607 
0.0566466 0.0538864 0.0513843 0.0470778 0.0444112 
0.0389024 -0.0428896 -0.0474151 -0.0527826 -0.0496918 
-0.0592019 -0.0566303 -0.0624895 -0.0609971 -0.0668032 
-0.0839236 -0.0713442 -0.0642789 -0.0751861 -0.0642918 
-0.0863741 -0.0731423 -0.0871223 -0.084874 -0.085766 
-0.0867913 -0.0708295 -0.0729339 -0.0733094 -0.0730312 
-0.0664441 0.0032614 -0.062446 -0.0585833 -0.0534664 
-0.0519437 -0.0472526 -0.0446397 -0.0383824 0.0427284 
0.0423839 0.0450525 0.0534375 0.0587158 0.0623913 
0.0717879 0.0598602 0.0696831 0.0725469 0.596016 
0.0843073 1.65193 1.6527 -0.045497 0.794873 
-1.65977 -0.796826 0.0869237 0.0742965 -0.0693095 
-0.0410102 -0.0766686 0.0663534 0.0394501 0.0429855 
0.0626515 0.0766779 -1.19403 1.65358 1.65333 
1.65403 1.655 1.6559 1.65545 1.65364 
1.65236 1.653 1.65621 1.66002 0.992051 
0.00121859 -0.386842 -0.785168 -1.18782 -1.65525 
-1.65595 -1.65963 -1.65816 -1.65575 -1.65466 
-1.6538 -1.65356 -1.65367 -1.6538 -1.65392 
-1.65434 -1.65534 -1.65629 -1.6607 0.400459 
0.796539 1.18989 0.0280921 0.0757608 -0.0233425 
0.0584318 0.0551997 0.0526262 0.0495155 0.04533 
0.0439065 -0.0870139 -0.0412961 -0.0268141 -0.0733715 
-0.0827649 -0.0795521 -0.0875303 0.0327607 -0.0814444 
-0.0635317 -0.0605052 -0.0549941 -0.0534791 -0.050095 
-0.0416935 -0.0429562 0.0425745 0.0495901 0.0567016 
0.0608248 0.074525 0.0716705 0.0851946 0.0823273 
0.0863749 -0.049748 -0.072359 -0.0412779 -0.073336 
-0.0453017 0.0859234 -0.894251 -1.08876 1.48333 
1.47982 1.47642 1.48048 -0.286335 1.48138 
-0.097062 1.48454 -1.48899 1.48287 1.48512 
1.47824 0.0702334 1.47933 1.49559 1.48239 
1.48863 0.293444 -1.4805 1.27488 -1.49773 
-1.48335 1.47161 -1.48073 -0.675275 -0.109493 
1.48795 -1.48452 -1.48874 1.4782 -1.48871 
-1.49044 0.0954334 -1.0681 -1.48344 1.48402 
0.0768772 -1.48504 -1.4829 -0.101709 -1.48033 
-1.4806 -1.4807 -1.27028 -1.48092 -1.48153 
-1.48233 0.0967033 0.080336 -1.27936 1.49625 
-0.296691 1.47059 1.47951 0.698857 -1.47496 
-0.496179 0.501158 -1.48805 1.08772 -1.48363 
0.0074683 0.108848 1.47952 0.0709989 0.0900259 
0.302657 1.47647 1.27624 0.0981723 0.0797678 
0.0742305 -0.096956 0.0730433 -0.0855209 0.890449 
-1.4803 -0.108987 -0.068287 -0.0854759 -0.00634851 
-1.48483 0.0742871 -0.105811 -1.48095 -0.870299 
-0.109211 -0.111031 0.0603038 0.0845383 1.48024 
0.0739371 -0.0790423 -1.48425 -0.083056 0.0676828 
-0.0805181 -0.110197 -0.0762203 -0.0643936 -0.0741375 
0.065209 0.0955289 0.0622505 0.0687348 0.0639956 
1.4822 1.47858 -0.0838153 0.0794738 1.47917 
0.10729 1.47801 0.494314 0.094188 0.108148 
0.0775025 -0.0959843 -0.109036 -1.48913 -0.0907343 
-0.110902 -0.695524 0.0946003 0.693863 0.0928892 
0.0849894 0.102997 -0.095963 0.0913195 0.0656299 
0.0631845 1.47793 1.4803 1.48435 0.0436741 
0.106078 -0.066387 0.0580123 0.0823337 1.48083 
1.48004 1.4813 1.47873 -1.48045 -0.0927612 
-1.48403 -0.0809789 0.105707 -1.48272 -0.480905 
-1.48768 1.48274 -1.48112 0.0953552 -1.49275 
-1.48375 0.076664 -1.48185 -1.4808 0.0948514 
1.08408 0.895215 -0.0527951 -0.0651424 0.101277 
0.0689917 -0.0233112 -0.091963 0.0929526 -0.0966104 
0.10673 -0.0860904 0.0655571 -0.0718439 1.47713 
-0.0679041 -0.0822583 -0.0794842 -0.0358273 0.0246317 
-0.0966994 -0.0757608 -0.0727669 0.0859803 0.0607083 
0.108232 0.106225 0.109581 -0.0668896 0.0847479 
-0.0668042 -0.107118 0.0751674 -0.0904451 -0.0615842 
-0.0826816 -0.0983824 -0.0880934 -0.0732757 0.110124 
-0.0947078 -0.0609015 -0.0947805 0.0996265 -0.0911638 
-0.0639627 -0.11141 0.0162529 0.405382 1.30506 
-1.18384 -1.31012 -1.3077 1.31451 0.0918849 
0.100831 0.083253 0.0843421 -1.31937 -0.383836 
-1.30706 -1.30856 1.30936 -0.0567451 1.31139 
1.34743 -1.32028 -1.30881 1.30418 -1.32035 
1.30485 1.30478 -0.593361 -1.31516 -1.31056 
-1.30778 -0.135543 1.31402 -1.30717 -1.30801 
0.121844 0.0890768 -1.32455 1.32174 -0.195436 
1.34958 -1.35126 -0.0828958 0.118912 -1.3074 
0.80099 0.603771 -1.31151 -1.32072 0.12007 
1.30534 1.3061 1.30042 -1.3079 0.0958965 
-1.30764 0.0128086 1.30279 -0.10036 -0.0221959 
-0.135384 0.987753 1.30712 -0.0863678 -0.128526 
1.30809 -1.31051 -1.30758 -0.943839 -0.103974 
-0.132453 1.30617 -1.31222 -0.136428 -1.30745 
-0.0991027 1.30117 0.111701 1.31307 -1.3302 
-0.110421 -1.31736 0.103424 1.30392 0.392155 
0.121036 -0.100393 1.3056 -1.32083 0.114 
0.590839 0.117886 0.119608 1.30992 -0.122944 
-0.75608 -0.0636398 -0.093238 0.0947178 -1.31601 
0.0919194 1.3068 1.3075 1.30452 -1.31414 
-1.30695 1.3013 0.0962024 -0.793415 -0.0969527 
0.064963 0.205144 0.134388 1.30269 1.18452 
0.104291 0.0941915 -0.118271 1.31236 0.0930438 
-0.113552 1.31867 0.0938409 -0.0273993 -0.218166 
0.00462374 -1.31846 -0.570922 1.31101 -0.0910586 
-1.30768 0.132695 -0.102119 -0.394427 0.087466 
-1.3125 -0.119524 -0.0920928 -0.100385 0.116065 
-0.993785 1.3133 1.17903 -0.109169 0.119086 
1.30641 -0.119492 0.119228 -0.0887741 -0.0895101 
0.0989571 -0.104012 -1.3125 0.126007 -0.108733 
-0.130911 1.31097 -0.0598469 -0.106851 0.78984 
1.30916 0.0484154 -0.121167 -0.123883 -0.0891325 
-0.136905 0.113721 0.0866561 -1.13229 0.133674 
0.0804475 -0.111187 0.132783 -0.122055 0.206566 
-0.0872411 0.110813 -0.134085 0.0942854 -0.106021 
0.12116 -0.115337 -0.100785 -0.0886209 0.112649 
0.998402 0.104466 0.117827 -0.138129 -0.0926257 
0.136512 0.106356 0.0984273 -1.15402 -0.889624 
1.12832 1.15661 0.125323 0.127923 0.0460377 
1.13416 1.10762 -0.128433 -1.14528 1.13306 
0.128278 -0.064659 1.14692 0.0500195 1.13305 
-0.124349 -0.648981 0.111635 -1.13424 -0.0863355 
-1.13468 0.145822 -1.15724 1.13917 0.136095 
-0.490729 1.12382 0.127624 -1.14955 -0.107676 
0.0370982 -0.162174 0.905771 -0.00359451 -1.13344 
1.12814 0.130062 -0.118439 0.141066 -1.15265 
-0.11961 -1.15325 -0.128944 -1.13862 -1.13469 
0.12223 1.13457 -0.136623 -1.13473 -0.473332 
0.71004 1.13116 0.0774439 0.0910332 -0.161598 