
TITLE     = "DG2D to Tecplot"
VARIABLES = "X"
"Y"
"RHO"
"U"
"V"
"VELOCITY_MAG"
"P"
"T"
"THETA1"
"THETA2"
ZONE T="ZONE 1"
STRANDID=0
ZONETYPE=FEQuadrilateral
DATAPACKING=BLOCK
VARLOCATION=([3-10]=CELLCENTERED)
DT=(SINGLE SINGLE SINGLE SINGLE SINGLE SINGLE SINGLE SINGLE SINGLE SINGLE)

Nodes=1886, Elements=3570
-3.88578e-16 0.6 0.6 3 
3 -3.88578e-16 0.04 0.08 0.12 
0.16 0.2 0.24 0.28 0.32 
0.36 0.4 0.44 0.48 0.52 
0.56 0.6 0.6 0.6 0.6 
0.64 0.68 0.72 0.76 0.8 
0.84 0.88 0.92 0.96 1 
1.04 1.08 1.12 1.16 1.2 
1.24 1.28 1.32 1.36 1.4 
1.44 1.48 1.52 1.56 1.6 
1.64 1.68 1.72 1.76 1.8 
1.84 1.88 1.92 1.96 2 
2.04 2.08 2.12 2.16 2.2 
2.24 2.28 2.32 2.36 2.4 
2.44 2.48 2.52 2.56 2.6 
2.64 2.68 2.72 2.76 2.8 
2.84 2.88 2.92 2.96 3 
3 3 3 3 3 
3 3 3 3 3 
3 3 3 3 3 
3 3 3 2.96 2.92 
2.88 2.84 2.8 2.76 2.72 
2.68 2.64 2.6 2.56 2.52 
2.48 2.44 2.4 2.36 2.32 
2.28 2.24 2.2 2.16 2.12 
2.08 2.04 2 1.96 1.92 
1.88 1.84 1.8 1.76 1.72 
1.68 1.64 1.6 1.56 1.52 
1.48 1.44 1.4 1.36 1.32 
1.28 1.24 1.2 1.16 1.12 
1.08 1.04 1 0.96 0.92 
0.88 0.84 0.8 0.76 0.72 
0.68 0.64 0.6 0.56 0.52 
0.48 0.44 0.4 0.36 0.32 
0.28 0.24 0.2 0.16 0.12 
0.08 0.04 -3.88578e-16 -3.88578e-16 -3.88578e-16 
-3.88578e-16 -3.88578e-16 -3.88578e-16 -3.88578e-16 -3.88578e-16 
-3.88578e-16 -3.88578e-16 -3.88578e-16 -3.88578e-16 -3.88578e-16 
-3.88578e-16 -3.88578e-16 -3.88578e-16 -3.88578e-16 -3.88578e-16 
-3.88578e-16 -3.88578e-16 -3.88578e-16 -3.88578e-16 -3.88578e-16 
-3.88578e-16 0.0552271 0.139641 0.220352 0.300346 
0.380202 0.45883 0.535319 0.570555 0.568835 
0.56788 0.619362 0.69982 0.779946 0.85999 
0.939997 1.02 1.09999 1.17999 1.25999 
1.33999 1.41998 1.49999 1.57999 1.66 
1.73999 1.81999 1.9 1.98 2.05999 
2.13999 2.22 2.3 2.38 2.45998 
2.53992 2.6197 2.69913 2.77822 2.85732 
2.93496 2.9705 2.96948 2.96666 2.96557 
2.96508 2.96517 2.96507 2.96518 2.96556 
2.96351 2.96122 2.89504 2.81975 2.73982 
2.65997 2.58003 2.50004 2.42003 2.34001 
2.26 2.18001 2.10001 2.02 1.94 
1.86 1.78001 1.7 1.62 1.54 
1.46 1.38 1.3 1.22 1.13999 
1.05999 0.979996 0.899996 0.819995 0.739997 
0.659998 0.579992 0.499981 0.419985 0.340024 
0.260221 0.180708 0.101382 0.0352104 0.0348989 
0.0350744 0.0351305 0.0348288 0.0347913 0.0348054 
0.0347989 0.0347017 0.0342485 0.0342166 0.033536 
0.0977442 0.180331 0.260273 0.340424 0.419504 
0.497723 0.552823 0.565546 0.578866 0.659697 
0.73991 0.819972 0.899996 0.979997 1.06 
1.13999 1.21999 1.29999 1.37999 1.45998 
1.53999 1.62 1.69999 1.77999 1.85999 
1.94 2.01999 2.09999 2.17999 2.26 
2.34 2.41999 2.49996 2.57982 2.65945 
2.73866 2.81772 2.89666 2.95287 2.96653 
2.96626 2.96517 2.96512 2.96516 2.96503 
2.96554 2.96471 2.92666 2.85942 2.77976 
2.6999 2.62001 2.54003 2.46004 2.38002 
2.3 2.22 2.14001 2.06 1.98 
1.9 1.82 1.74 1.66 1.58 
1.5 1.42 1.34 1.26 1.18 
1.09999 1.01999 0.939996 0.859994 0.779995 
0.699998 0.619996 0.539985 0.459978 0.379998 
0.300084 0.220469 0.140796 0.0657777 0.0363623 
0.0346883 0.0352386 0.0349552 0.0347963 0.0348027 
0.0348076 0.0347651 0.0345457 0.0339427 0.0353116 
0.0699344 0.240377 0.320869 0.400699 0.476978 
0.514416 0.539783 0.839974 0.719726 2.93378 
0.597602 0.531683 0.799926 0.679475 0.919996 
0.999996 1.07999 1.15998 1.23998 1.31997 
1.39997 1.47996 1.55998 1.63999 1.71999 
1.79998 1.87999 1.95999 2.03998 2.11998 
2.19999 2.28 2.36 2.43998 2.5199 
2.59956 2.67871 2.75686 2.83477 2.91365 
2.93007 2.84016 2.93154 2.9317 2.93039 
2.93031 2.93024 2.92987 2.93149 2.92791 
2.67997 0.0697226 2.75963 2.88605 2.7198 
2.60007 2.52009 2.44008 2.36003 2.28 
2.20001 2.12002 2.04 1.95999 1.88 
1.80001 1.72001 1.64 1.56001 1.48001 
1.40001 1.32 1.24 1.15999 1.07998 
0.999986 0.919988 0.839987 0.759993 0.68 
0.599994 0.51997 0.439957 0.359994 0.280142 
0.201108 0.121203 0.0695779 0.119655 0.0763136 
0.0738987 0.0700657 0.0699398 0.0695901 0.0705382 
0.0696332 0.0696187 0.0695173 0.0689719 0.0674325 
0.200817 0.759855 0.161095 0.530291 0.0706916 
0.0686921 0.280398 0.361257 0.438582 0.555666 
0.638937 0.959997 0.879991 1.03999 1.11999 
1.19998 1.27998 1.35997 1.43996 1.51997 
1.59999 1.67999 1.75998 1.83999 1.92 
1.99999 2.07998 2.15998 2.24 2.32 
2.39999 2.47995 2.55979 2.63923 2.71787 
2.79586 2.87404 2.93014 2.93339 2.92996 
2.93037 2.93039 2.93099 2.64005 2.79953 
2.56009 2.48009 2.40006 2.32001 2.24 
2.16002 2.08001 2 1.91999 1.84001 
1.76001 1.68 1.6 1.52001 1.44001 
1.36 1.28 1.2 1.11998 1.03998 
0.959986 0.879985 0.799987 0.719996 0.639998 
0.559982 0.479955 0.399968 0.320026 0.240472 
0.161763 0.0695961 0.0696321 0.0695818 0.0693619 
0.0682134 0.068862 2.62019 2.89556 0.342031 
0.259903 0.512194 1.57996 0.498579 0.940001 
1.13998 0.576 0.106669 1.37993 0.819935 
0.699484 1.89999 1.06 1.09999 0.899997 
1.21996 1.29994 1.33994 0.144412 0.103305 
1.49993 0.0996293 0.456835 1.65999 1.73998 
1.81997 1.89999 0.14359 1.97998 2.05996 
2.13996 2.21999 2.29999 2.37999 2.45996 
2.5398 2.61919 2.69751 2.77443 2.89493 
2.9024 2.73971 0.859985 2.77928 2.85055 
2.89581 2.89442 0.101051 2.14003 2.89424 
2.66021 2.81844 0.104179 2.70008 1.02 
0.104493 2.54018 2.46017 2.38007 2.30001 
2.22001 2.18002 2.06002 1.97999 1.93999 
2.88976 1.82001 1.74002 1.66 1.58001 
1.50002 1.42002 1.34001 1.26001 1.17999 
1.09996 1.01996 0.939968 0.859968 0.779981 
0.700002 0.620003 0.539972 0.459918 0.379938 
0.299903 0.220614 0.104544 0.104698 0.300636 
0.105487 0.104476 0.104428 0.104482 0.104259 
0.104034 0.101579 0.105696 0.779858 0.739721 
0.493909 0.106629 0.220171 1.53994 0.104407 
1.93999 1.45992 2.89509 0.423001 2.85734 
2.89529 0.182126 2.90064 0.104462 2.89598 
0.533112 2.89555 1.85998 0.659037 0.98 
2.58016 1.25995 1.17996 0.489951 1.41991 
1.61998 1.69998 1.77997 2.01997 2.09995 
2.17997 2.25999 2.33999 2.41998 2.4999 
2.57961 2.65859 2.73609 2.81247 2.89479 
1.86 2.89548 0.617906 2.89887 2.50017 
2.42012 2.34004 2.26001 2.10003 2.02 
1.70001 1.78002 1.62 1.54002 1.46002 
1.38001 1.30001 1.22 1.13997 1.05996 
0.979964 0.899965 0.81997 0.739991 0.660006 
0.579991 0.499939 0.419907 0.339938 0.260016 
0.383617 0.104516 0.104401 0.181546 2.89826 
2.52033 0.412176 1.79995 2.51986 0.48907 
0.554882 2.72055 0.719526 2.19996 1.75996 
2.8639 0.144627 0.279439 2.44023 0.462444 
0.128669 1.08 1.15995 0.920011 1.27988 
2.56031 2.24002 0.129942 0.199891 1.67998 
1.63997 1.71997 1.87996 1.28003 1.99994 
2.07992 2.15993 1.84001 2.27999 2.35998 
2.43998 2.47994 2.8607 2.86227 2.63871 
2.28002 2.71606 1.88 0.839967 2.67768 
0.799879 2.75957 1.11998 1.23989 0.139175 
1.83995 2.04002 2.6405 1.39982 2.79888 
0.143167 2.68067 1.00001 0.137503 1.04001 
2.87004 2.48032 2.12006 2.36009 2.32004 
1.76002 2.08005 1.36003 1.52005 1.68 
2.82794 1.60001 1.11994 2.86047 1.44005 
1.40003 1.64 1.32003 1.56003 1.2 
1.15997 0.139615 0.999914 0.919926 0.839932 
0.759978 0.680019 0.600017 0.519955 0.43982 
0.359846 0.319761 1.59995 0.136406 0.456926 
0.139396 0.36388 0.139681 2.86073 0.139509 
0.139387 0.198502 0.139533 2.86655 0.133811 
2.85792 0.141593 0.759768 2.79117 0.239199 
1.55991 0.139358 1.95997 1.47984 2.85954 
0.138854 1.03992 0.32103 1.51987 2.83627 
2.75376 2.16006 2.59933 2.85759 0.279628 
2.60035 0.879998 0.162784 0.51251 1.43982 
0.679248 0.455139 2.20005 0.960012 2.31998 
2.03993 2.11991 2.23998 2.39998 2.85909 
2.55965 1.35986 1.19991 1.80003 2 
1.91997 1.31987 0.161336 2.40016 1.72002 
1.48005 1.24002 0.597031 1.07992 0.959913 
0.879921 0.799952 0.720002 0.640023 0.559993 
0.479891 0.399814 0.139378 2.85997 0.139007 
0.238352 2.86056 2.87509 1.91999 0.139379 
2.25995 1.06006 2.77906 0.534331 1.81992 
1.66 2.18011 0.900021 2.85925 0.580055 
1.21981 0.258969 1.41964 1.78003 2.69695 
1.86001 2.26005 2.65819 2.3401 2.49993 
0.174923 1.89993 2.13986 0.173756 2.01987 
1.70001 2.37996 2.33996 2.57949 0.739539 
2.38017 0.419627 2.22008 2.53977 0.819921 
1.13997 2.09985 1.95999 1.65996 2.02002 
0.189106 2.66115 1.49972 2.54063 0.638455 
1.02006 0.980051 2.46044 2.70181 1.74003 
2.81917 1.58004 0.25834 1.77993 0.444418 
2.42029 0.939825 2.21994 1.34006 2.82411 
0.469856 2.45999 0.859843 1.42008 1.62001 
1.26006 1.05984 0.979807 0.899841 1.4601 
0.779938 0.700037 0.620069 0.499927 0.459788 
0.339607 1.61994 0.174268 0.38068 2.1001 
0.174864 0.174525 1.82002 1.5001 0.213325 
2.82575 2.50057 0.17412 0.419741 0.779757 
2.80807 1.17988 2.82542 1.57987 0.174383 
1.9799 0.859993 0.174273 1.01982 0.339631 
1.53981 1.09985 2.82324 0.174716 2.82578 
0.299431 1.93993 2.61894 2.8188 0.300019 
1.13991 1.38005 1.17998 2.84285 0.179831 
2.06006 2.30005 0.492594 0.171002 1.10002 
1.98 0.699254 1.85992 1.9 0.175251 
1.73995 2.1799 2.29996 2.05985 1.45965 
0.940043 1.93999 2.14011 1.37967 2.74231 
1.25976 2.41998 2.73461 0.660059 0.173729 
2.7712 0.379612 0.540014 1.30007 0.819883 
1.22003 1.54009 0.576283 0.739989 2.82291 
0.1743 2.82281 0.216498 2.82574 0.174491 
2.6207 2.58057 1.29974 0.399174 0.960143 
0.999606 1.59982 1.84001 2.51997 2.44047 
1.19971 2.15982 1.08013 0.799807 1.28016 
2.48073 0.210771 2.03974 0.520084 2.08014 
0.319116 1.68001 2.77323 0.414413 1.40014 
1.69996 1.51957 2.63853 2.27989 2.00006 
1.33972 1.87986 1.83987 0.207767 1.52019 
2.82523 0.513571 2.16021 0.919641 0.83973 
0.439573 0.479877 0.600162 1.43933 0.237179 
2.68213 2.52107 0.208466 1.04018 1.00016 
0.959628 1.72001 1.47945 0.282649 1.20004 
1.60007 0.680122 2.59926 2.72417 2.2399 
0.759547 2.39996 1.64002 1.24012 2.79086 
0.640153 0.42717 0.879675 1.44016 0.920079 
0.720053 1.76002 0.174546 1.32014 0.208926 
0.450914 0.759953 0.210087 1.80001 1.48019 
2.24017 0.243968 1.56013 2.48006 0.560161 
0.209474 1.99976 0.880022 2.12018 0.353238 
1.5597 1.0797 2.7854 0.209898 2.7907 
0.279433 1.03966 1.79989 2.04008 1.11978 
2.11976 2.20019 1.36011 1.15992 2.3602 
1.15991 2.35991 0.382005 1.67994 2.78943 
0.359043 0.226122 1.88001 2.78631 0.400019 
1.12006 1.75993 1.23958 0.839963 2.19986 
2.6779 2.7896 1.39932 2.55971 1.91984 
2.07972 0.799841 1.6399 1.71994 0.319296 
2.40033 2.44003 0.617835 2.64121 0.210643 
0.472129 1.96004 2.78735 2.31989 0.719211 
2.79054 0.209552 0.555293 1.9598 0.65884 
0.208785 2.56122 2.32013 2.28014 2.71724 
1.27949 0.341706 1.09955 0.980401 0.206212 
0.240399 2.57976 2.38033 0.298005 0.247513 
1.65984 2.29974 1.58022 2.46021 2.21976 
0.37808 1.92002 1.85978 0.819862 1.06037 
2.79045 2.09961 2.42041 2.75529 1.38026 
0.660273 1.18001 2.14027 1.14009 0.459845 
2.2204 0.819627 1.02044 2.54009 0.241053 
1.2603 1.50036 0.50027 2.7019 2.25976 
0.779634 1.2202 1.62014 0.210122 0.245053 
1.7 1.66005 1.21935 2.50125 1.61971 
1.81994 2.601 0.859455 0.740076 1.42028 
0.94027 0.700197 1.73996 0.899329 0.210066 
1.3003 0.243197 0.580394 0.337431 0.303317 
0.43192 0.779853 0.419114 0.246753 2.05955 
1.77993 1.4603 2.50026 0.540393 2.65773 
1.57957 0.24492 2.01952 0.900096 2.78469 
2.17975 2.75569 0.261814 1.01926 2.42003 
1.81986 0.409241 0.491649 1.17971 2.13968 
1.53938 2.18035 2.46061 1.34027 1.13978 
2.37988 1.85999 2.61911 1.25912 0.369691 
0.979221 1.45893 0.385184 2.7433 1.31944 
1.77994 2.34027 0.859969 2.06019 2.75557 
2.33979 1.10027 1.41881 0.246428 1.54031 
0.939234 0.24595 1.49918 2.66139 1.05939 
0.269408 0.620351 0.449835 1.89969 1.35935 
2.75351 0.739228 2.69779 1.98018 2.10022 
2.75498 2.75877 0.244249 0.596941 1.97951 
0.678796 2.02016 2.54215 1.69993 2.26042 
0.533462 0.638182 0.600743 1.48052 0.760079 
0.640561 0.575405 1.63949 2.19958 2.35972 
1.15993 0.439957 2.31949 0.284129 1.55912 
1.52054 1.93957 2.27939 2.74255 0.87999 
2.48059 1.73997 1.24048 0.480752 0.510826 
1.04087 2.23948 1.001 2.75452 1.16008 
2.56037 0.799639 0.355449 0.799683 1.20031 
2.40027 0.839716 1.60046 1.56053 1.12052 
0.83926 1.40055 0.39498 0.960824 0.680453 
1.79964 1.71988 0.878907 0.245275 1.28057 
0.320796 2.20067 0.398261 0.285949 1.07913 
2.48066 2.07945 1.75969 2.30035 1.44048 
2.52068 0.520927 1.59931 1.94016 0.282087 
2.03924 0.92043 2.44031 1.8398 2.44016 
1.3206 1.11954 2.39997 2.63948 2.5825 
1.83981 1.67977 2.67757 0.363238 1.47852 
1.29891 1.64029 0.720332 0.35647 1.80007 
0.281797 2.72048 2.04031 0.560873 1.19927 
0.246588 1.43821 0.270566 0.553057 2.71776 
2.1196 2.60023 0.918607 1.5189 2.1604 
2.72029 0.312471 2.36044 0.276978 1.68008 
1.08068 0.407837 0.281423 1.96055 2.62155 
0.468337 1.90008 1.03875 1.37872 2.72364 
2.0802 0.75943 2.12024 1.36058 2.74845 
0.27844 1.999 0.698773 1.87952 2.00046 
2.52216 2.15964 2.6747 2.24098 1.23868 
0.998484 0.61699 2.6421 1.02197 2.50149 
0.318946 0.28052 0.581515 1.33877 0.818819 
0.621115 1.18007 1.95895 2.29875 2.58081 
0.461967 2.71756 1.7393 1.77881 0.958407 
2.37993 0.780055 1.38129 0.377809 1.91918 
0.858565 2.68869 1.57858 1.0582 0.36515 
0.982051 2.13998 1.14082 0.819267 1.9204 
1.54076 0.420763 0.660851 1.18044 0.279445 
1.26081 1.58105 0.285041 1.22076 1.1011 
0.3243 2.28106 1.42093 2.54147 0.502057 
0.70073 2.45949 2.70905 0.900475 0.329126 
2.05919 0.941494 2.46092 2.18064 0.424877 
2.33931 1.30106 1.09918 2.42035 1.34127 
1.46064 0.328529 2.56471 1.81909 1.72004 
1.62113 1.8203 0.316652 2.02084 0.541779 
2.66819 1.27819 1.21846 2.68065 0.282234 
1.65905 2.67833 0.595027 1.69994 2.21905 
1.94138 0.897818 1.5386 1.45779 1.6185 
2.09992 1.06154 2.32071 1.49833 0.859396 
0.379072 0.487715 1.13985 1.8801 2.62205 
0.74056 1.01735 2.64563 2.71291 1.39782 
2.25862 2.41916 2.68138 2.06024 0.779512 
2.0998 1.76018 0.311746 2.01837 0.718898 
1.98142 2.50007 1.50068 2.17952 2.22165 
0.658097 1.85953 0.530129 2.38017 0.348118 
2.60656 0.444812 1.0821 1.66059 0.562864 
1.52006 2.43758 0.321961 1.6999 1.97778 
2.13984 2.5227 2.63648 0.83715 2.40102 
0.937096 1.90073 0.976933 2.35972 0.364114 
0.60225 1.35754 1.16092 0.721108 1.56147 
0.760883 0.800437 0.404499 0.641614 1.00409 
0.312666 1.16093 2.3181 1.20111 1.12123 
2.26248 1.40264 0.484024 0.681173 0.963772 
0.44453 2.60019 1.04369 2.48166 2.15944 
1.93789 0.92248 0.400031 2.30256 0.838734 
1.63683 0.523299 1.59655 1.24068 1.2814 
1.07815 2.44114 1.32231 1.75708 1.44108 
0.636806 1.79696 1.31763 1.60289 2.08027 
2.34109 0.507379 2.47976 2.39586 2.00296 
1.89869 1.25737 0.31534 2.63769 1.48029 
2.23707 0.877211 1.55796 0.572166 1.84035 
1.2017 1.92281 1.78088 1.47846 0.880007 
0.352166 1.85985 1.12032 1.41687 2.27698 
2.56388 2.63784 2.04089 1.36287 0.795649 
0.465225 2.11818 2.03804 0.73969 1.96348 
1.67872 2.19881 2.20183 1.03584 1.71906 
0.67818 2.54294 1.80247 1.43649 1.64271 
0.904463 2.12145 0.623553 0.485833 2.59221 
0.548925 0.544668 0.987186 0.422083 1.53973 
2.07947 1.99603 0.614281 2.54843 2.28595 
0.701131 2.38204 1.10156 0.355139 1.87846 
0.584318 1.37588 0.954446 1.51853 1.14581 
1.33539 0.91512 1.38593 0.740911 2.32594 
0.782432 1.46015 1.42543 1.74065 2.36066 
2.3382 2.46134 0.466558 1.18191 2.2444 
2.42478 1.68074 0.857649 0.661913 0.505196 
1.95543 2.59681 1.06688 2.49855 0.946401 
0.823121 1.91616 1.61244 1.21846 1.26086 
1.88083 1.30351 1.13688 1.98706 2.10536 
1.58573 0.444621 0.526405 1.77268 1.29573 
2.46014 2.25335 1.72103 2.02594 1.18315 
0.343665 2.16017 1.02761 1.0537 0.657021 
0.994707 0.857636 0.399055 1.23727 1.85939 
1.57304 1.39401 1.82579 1.34515 1.49512 
1.76268 2.1342 0.380365 0.430989 1.45856 
2.59457 1.10034 2.2949 0.809571 2.41009 
2.05948 1.83858 0.760211 1.65383 2.21378 
2.18011 1.90534 0.699299 2.51737 1.73366 
1.50339 1.94682 0.930675 0.56683 2.36057 
0.97088 0.681128 2.26951 1.32784 1.01173 
0.632734 1.89294 1.35252 2.55264 0.891663 
2.31258 0.76151 2.09394 0.590444 2.22678 
1.66607 1.31173 1.97184 1.27208 1.62696 
2.50971 2.01333 1.93161 1.85947 1.23712 
1.36948 1.41183 0.716247 1.28528 1.53849 
2.14556 1.81377 0.679562 0.646438 2.17967 
0.607104 1.78692 2.05985 1.69985 1.74582 
1.69988 0.724719 
2.27374e-15 2.27374e-15 0.2 0.2 
1 1 2.27374e-15 2.27374e-15 2.27374e-15 
2.27374e-15 2.27374e-15 2.27374e-15 2.27374e-15 2.27374e-15 
2.27374e-15 2.27374e-15 2.27374e-15 2.27374e-15 2.27374e-15 
2.27374e-15 0.04 0.08 0.12 0.16 
0.2 0.2 0.2 0.2 0.2 
0.2 0.2 0.2 0.2 0.2 
0.2 0.2 0.2 0.2 0.2 
0.2 0.2 0.2 0.2 0.2 
0.2 0.2 0.2 0.2 0.2 
0.2 0.2 0.2 0.2 0.2 
0.2 0.2 0.2 0.2 0.2 
0.2 0.2 0.2 0.2 0.2 
0.2 0.2 0.2 0.2 0.2 
0.2 0.2 0.2 0.2 0.2 
0.2 0.2 0.2 0.2 0.2 
0.2 0.2 0.2 0.2 0.24 
0.28 0.32 0.36 0.4 0.44 
0.48 0.52 0.56 0.6 0.64 
0.68 0.72 0.76 0.8 0.84 
0.88 0.92 0.96 1 1 
1 1 1 1 1 
1 1 1 1 1 
1 1 1 1 1 
1 1 1 1 1 
1 1 1 1 1 
1 1 1 1 1 
1 1 1 1 1 
1 1 1 1 1 
1 1 1 1 1 
1 1 1 1 1 
1 1 1 1 1 
1 1 1 1 1 
1 1 1 1 1 
1 1 1 1 1 
1 1 0.96 0.92 0.88 
0.84 0.8 0.76 0.72 0.68 
0.64 0.6 0.56 0.52 0.48 
0.44 0.4 0.36 0.32 0.28 
0.24 0.2 0.16 0.12 0.08 
0.04 0.0351752 0.0347942 0.0350197 0.0355254 
0.0354642 0.0343378 0.037232 0.0392818 0.106924 
0.18586 0.232741 0.234505 0.234657 0.23466 
0.234657 0.234639 0.23462 0.234609 0.234616 
0.234639 0.234654 0.234654 0.234654 0.23466 
0.234653 0.234636 0.234634 0.234649 0.234654 
0.234643 0.234636 0.234645 0.23465 0.234641 
0.234623 0.234599 0.234489 0.234325 0.234998 
0.237033 0.23902 0.305314 0.380681 0.460416 
0.539967 0.619852 0.6997 0.77907 0.858042 
0.935423 0.97068 0.969689 0.966188 0.965801 
0.965441 0.965304 0.965293 0.965337 0.965364 
0.965356 0.965347 0.965356 0.965359 0.965347 
0.965342 0.965354 0.965367 0.965364 0.965359 
0.965361 0.96536 0.965354 0.965349 0.965341 
0.965338 0.96535 0.965368 0.965376 0.965371 
0.965363 0.965345 0.965303 0.96526 0.965269 
0.965427 0.965975 0.964625 0.944741 0.860315 
0.779688 0.700018 0.620023 0.539996 0.45998 
0.37996 0.300007 0.220374 0.140714 0.0657325 
0.0362793 0.0345794 0.0353332 0.0356399 0.0346088 
0.0356512 0.0748592 0.144148 0.227081 0.2341 
0.234631 0.234662 0.234659 0.234649 0.23463 
0.234614 0.234611 0.234628 0.234648 0.234656 
0.234653 0.234658 0.23466 0.234645 0.234632 
0.23464 0.234655 0.23465 0.234638 0.23464 
0.23465 0.234648 0.234633 0.234611 0.234565 
0.234382 0.234439 0.236062 0.273875 0.340958 
0.420685 0.500139 0.579885 0.659822 0.739479 
0.818538 0.897349 0.953358 0.966329 0.966012 
0.9656 0.965349 0.965289 0.965313 0.965356 
0.965363 0.96535 0.965351 0.96536 0.965354 
0.965343 0.965346 0.965362 0.965367 0.965361 
0.96536 0.965362 0.965357 0.965351 0.965344 
0.965338 0.965342 0.96536 0.965375 0.965375 
0.965369 0.965356 0.965325 0.965274 0.965252 
0.965307 0.965689 0.96569 0.96642 0.902205 
0.819629 0.7399 0.660037 0.580007 0.499985 
0.41997 0.339966 0.260137 0.180619 0.101306 
0.880211 0.0706084 0.0711624 0.0708418 0.0690124 
0.0742417 0.215419 0.269318 0.269218 0.360689 
0.264527 0.169652 0.269318 0.268876 0.269321 
0.269291 0.269249 0.269218 0.26922 0.269266 
0.269307 0.269312 0.269305 0.269321 0.269319 
0.26928 0.26926 0.26929 0.269315 0.269293 
0.269269 0.269284 0.269304 0.269294 0.269266 
0.26925 0.269182 0.268782 0.269083 0.273558 
0.519961 0.932743 0.440894 0.314971 0.480288 
0.599718 0.679568 0.758824 0.836588 0.914805 
0.930977 0.640022 0.931816 0.932176 0.931354 
0.930627 0.930566 0.930651 0.930732 0.930722 
0.930691 0.930706 0.930723 0.9307 0.930677 
0.930697 0.930733 0.930733 0.930718 0.930722 
0.930723 0.930711 0.9307 0.930684 0.930672 
0.93069 0.93073 0.930754 0.930747 0.930733 
0.930706 0.930632 0.930519 0.930504 0.930624 
0.931628 0.930976 0.560004 0.069744 0.926003 
0.0761915 0.680048 0.799115 0.600012 0.720006 
0.479955 0.399913 0.319865 0.240265 0.161555 
0.0696843 0.269304 0.0684589 0.118707 0.759694 
0.838794 0.070857 0.0715735 0.0680323 0.258143 
0.267768 0.269308 0.269321 0.269268 0.269229 
0.269217 0.269241 0.26929 0.269316 0.269305 
0.269311 0.269325 0.2693 0.269263 0.269271 
0.269309 0.269309 0.269277 0.269272 0.269297 
0.269304 0.269281 0.269256 0.269248 0.269018 
0.2687 0.270674 0.559784 0.401496 0.719299 
0.639661 0.797827 0.875716 0.930751 0.932242 
0.930571 0.930596 0.930702 0.930736 0.930703 
0.930693 0.930719 0.930716 0.930685 0.930682 
0.930718 0.930738 0.930724 0.930717 0.930725 
0.930718 0.930705 0.930695 0.930677 0.930675 
0.93071 0.930748 0.930755 0.930742 0.930723 
0.930675 0.930567 0.930485 0.930529 0.930923 
0.932384 0.519986 0.439939 0.359883 0.279949 
0.200891 0.121025 0.895985 0.619495 0.107068 
0.106473 0.249017 0.30396 0.201401 0.303986 
0.303818 0.297774 0.779572 0.30396 0.303978 
0.303812 0.896004 0.303879 0.303848 0.303998 
0.303805 0.303872 0.303921 0.900093 0.220199 
0.303965 0.144076 0.0976788 0.304004 0.303977 
0.303897 0.303885 0.10071 0.303959 0.303985 
0.303923 0.303894 0.303941 0.303968 0.303941 
0.303903 0.303954 0.303926 0.303138 0.539626 
0.383485 0.897447 0.303985 0.898024 0.303633 
0.816453 0.738846 0.856195 0.896039 0.778167 
0.896223 0.898642 0.818144 0.896626 0.30392 
0.105422 0.895791 0.895914 0.896102 0.896107 
0.896029 0.896021 0.896093 0.896063 0.896031 
0.30705 0.896021 0.896097 0.896115 0.896076 
0.896078 0.896092 0.89607 0.89605 0.896031 
0.895994 0.896007 0.896083 0.89614 0.896133 
0.89611 0.896077 0.895982 0.895769 0.895672 
0.895771 0.896452 0.459889 0.659954 0.106194 
0.700058 0.499951 0.540001 0.379785 0.299565 
0.259637 0.18171 0.89529 0.303974 0.303959 
0.152691 0.740113 0.106156 0.303954 0.580013 
0.303918 0.303982 0.69917 0.106188 0.899929 
0.579545 0.898087 0.344155 0.619976 0.89235 
0.292487 0.460166 0.303875 0.303242 0.303958 
0.895851 0.303824 0.303802 0.108721 0.303985 
0.303982 0.304002 0.303937 0.303986 0.303959 
0.303897 0.303913 0.303962 0.303958 0.30392 
0.303912 0.304005 0.303557 0.303025 0.499779 
0.895997 0.6593 0.301422 0.853832 0.895826 
0.896027 0.896127 0.896065 0.896072 0.896089 
0.896117 0.896058 0.896096 0.89607 0.896089 
0.896084 0.896057 0.896044 0.896009 0.895995 
0.896042 0.89612 0.896147 0.896123 0.896098 
0.896038 0.895879 0.895664 0.895721 0.895868 
0.108796 0.419867 0.339655 0.103711 0.421352 
0.860944 0.151998 0.338544 0.338556 0.287642 
0.332554 0.862466 0.338661 0.338498 0.338631 
0.337267 0.760836 0.860986 0.861293 0.238473 
0.129533 0.338458 0.338377 0.338695 0.338429 
0.860973 0.86137 0.870976 0.86191 0.338717 
0.338687 0.338695 0.338469 0.861394 0.338666 
0.338661 0.338525 0.861304 0.338571 0.338647 
0.338616 0.338587 0.438686 0.83622 0.338793 
0.861456 0.338866 0.861285 0.338648 0.339021 
0.33863 0.864249 0.338413 0.338367 0.319174 
0.338481 0.861484 0.861446 0.338668 0.863915 
0.800686 0.861796 0.338597 0.199131 0.338521 
0.869432 0.861082 0.861402 0.861547 0.861533 
0.861444 0.861461 0.861437 0.861422 0.861521 
0.337178 0.861443 0.861306 0.678621 0.861471 
0.861462 0.861488 0.861409 0.861415 0.861377 
0.861347 0.439744 0.861337 0.861484 0.86156 
0.861519 0.861484 0.86142 0.861227 0.860795 
0.860775 0.860981 0.338633 0.838186 0.181027 
0.359497 0.144165 0.679646 0.638993 0.479847 
0.519969 0.142126 0.399692 0.4007 0.16221 
0.758561 0.720062 0.338644 0.33733 0.860821 
0.338599 0.560053 0.338592 0.338649 0.718535 
0.238499 0.861297 0.140958 0.33861 0.864715 
0.337966 0.861339 0.338612 0.798402 0.141459 
0.861167 0.338689 0.86568 0.329302 0.338679 
0.338528 0.13485 0.861321 0.338658 0.338621 
0.338693 0.338593 0.338518 0.338641 0.478969 
0.338553 0.338606 0.338345 0.861362 0.86145 
0.338515 0.338521 0.135791 0.861461 0.861505 
0.86145 0.861385 0.335761 0.861282 0.86141 
0.86154 0.861545 0.861498 0.861462 0.861345 
0.861033 0.860686 0.639829 0.559344 0.278792 
0.143564 0.599312 0.367515 0.861324 0.600014 
0.373164 0.373072 0.833597 0.368385 0.37309 
0.826932 0.826571 0.373445 0.519226 0.826745 
0.37284 0.178114 0.373419 0.826742 0.374554 
0.826519 0.826741 0.373874 0.827042 0.373228 
0.41949 0.373053 0.373175 0.298329 0.373439 
0.826967 0.373353 0.373341 0.373212 0.373341 
0.826996 0.825565 0.826598 0.373195 0.373291 
0.372934 0.373323 0.861385 0.373458 0.826888 
0.784133 0.827122 0.373292 0.825895 0.337735 
0.373194 0.37332 0.826432 0.82746 0.826889 
0.778726 0.826753 0.826081 0.373245 0.289329 
0.826783 0.826823 0.373079 0.826766 0.539037 
0.328168 0.373271 0.82701 0.826871 0.82684 
0.826717 0.826534 0.826686 0.82694 0.826855 
0.826945 0.826884 0.826822 0.826354 0.825976 
0.825846 0.373352 0.338922 0.184014 0.82681 
0.459581 0.499821 0.826594 0.826792 0.186262 
0.411987 0.826071 0.698433 0.206138 0.373257 
0.371451 0.37286 0.697236 0.373255 0.540076 
0.373331 0.373382 0.215132 0.826577 0.175134 
0.373227 0.826544 0.737291 0.379286 0.657982 
0.826566 0.373179 0.373379 0.823378 0.17493 
0.826621 0.826826 0.826693 0.371494 0.739376 
0.826902 0.826922 0.366686 0.17415 0.372991 
0.82678 0.373477 0.37301 0.826548 0.82801 
0.373396 0.373074 0.373275 0.373432 0.373388 
0.373424 0.826644 0.82667 0.373358 0.828348 
0.372902 0.373317 0.374134 0.826862 0.257104 
0.371473 0.82548 0.826592 0.826723 0.826998 
0.826714 0.826741 0.370745 0.826906 0.457059 
0.65937 0.498534 0.824679 0.618791 0.580215 
0.82669 0.826142 0.373047 0.789845 0.408149 
0.791866 0.407952 0.791695 0.407865 0.791968 
0.407254 0.407645 0.407553 0.407836 0.792005 
0.791355 0.439098 0.408304 0.791746 0.792329 
0.791188 0.792481 0.794525 0.254725 0.792279 
0.373485 0.407863 0.408122 0.407882 0.792279 
0.373217 0.407485 0.407512 0.27733 0.792073 
0.579165 0.404395 0.791803 0.792324 0.792532 
0.790571 0.791239 0.792167 0.408218 0.789995 
0.792975 0.790736 0.234732 0.407699 0.407926 
0.792087 0.792449 0.408053 0.209072 0.792045 
0.792113 0.792286 0.407877 0.793205 0.407671 
0.407838 0.408061 0.792318 0.79204 0.714229 
0.792253 0.331436 0.792496 0.792322 0.408273 
0.792287 0.792226 0.620048 0.792041 0.317922 
0.366867 0.792346 0.479453 0.791929 0.792225 
0.791874 0.216423 0.792006 0.407919 0.792015 
0.519906 0.408198 0.40824 0.792074 0.207241 
0.407811 0.791697 0.753597 0.358478 0.676108 
0.793289 0.791728 0.407754 0.792406 0.791802 
0.407903 0.791715 0.792148 0.79197 0.792669 
0.407378 0.40811 0.227765 0.408346 0.401103 
0.789902 0.746711 0.791656 0.4371 0.298411 
0.407453 0.408064 0.407248 0.408057 0.407553 
0.409373 0.559329 0.408212 0.407823 0.40766 
0.408187 0.792436 0.408196 0.408299 0.208447 
0.792452 0.407981 0.372544 0.792792 0.398836 
0.403443 0.79202 0.519094 0.40806 0.408142 
0.637677 0.560383 0.406036 0.407937 0.373368 
0.678732 0.790563 0.792549 0.792215 0.411444 
0.407424 0.241393 0.756813 0.442805 0.714015 
0.257427 0.442398 0.75842 0.757521 0.418267 
0.443255 0.442755 0.757222 0.442601 0.441991 
0.753214 0.791789 0.441775 0.442563 0.442068 
0.598887 0.442851 0.757762 0.409279 0.757627 
0.757733 0.757383 0.757116 0.441864 0.755799 
0.75677 0.75806 0.4424 0.44249 0.702873 
0.757276 0.757512 0.756718 0.757838 0.442365 
0.442151 0.757411 0.757581 0.640363 0.336711 
0.758169 0.757996 0.441474 0.75596 0.44282 
0.756867 0.791533 0.758179 0.7577 0.757856 
0.443127 0.757709 0.757933 0.758006 0.600668 
0.757234 0.296724 0.757449 0.753873 0.243567 
0.403604 0.757838 0.754494 0.458878 0.443273 
0.7574 0.757815 0.442583 0.757193 0.442366 
0.442386 0.499438 0.443269 0.443255 0.477894 
0.44193 0.69394 0.762845 0.756898 0.442715 
0.442032 0.369996 0.440178 0.441712 0.442276 
0.442288 0.75672 0.756941 0.757368 0.757145 
0.442899 0.75662 0.442505 0.441547 0.269172 
0.757215 0.443002 0.339255 0.759176 0.407734 
0.4426 0.758473 0.443095 0.758032 0.579757 
0.442965 0.441925 0.443186 0.377441 0.757205 
0.757619 0.66258 0.442587 0.759818 0.756723 
0.240308 0.757646 0.439435 0.441942 0.408029 
0.540511 0.442433 0.445903 0.757556 0.757672 
0.656059 0.7282 0.540162 0.40755 0.442908 
0.408475 0.757955 0.754735 0.443392 0.757233 
0.441261 0.40839 0.722966 0.723276 0.723076 
0.723229 0.442512 0.478056 0.476006 0.477975 
0.722695 0.719847 0.477876 0.396162 0.476526 
0.722487 0.442387 0.477331 0.453207 0.478457 
0.721856 0.443131 0.722632 0.721458 0.476367 
0.476646 0.476555 0.477298 0.617796 0.47635 
0.476935 0.723469 0.714799 0.476579 0.722918 
0.72402 0.477896 0.722501 0.722089 0.476216 
0.723947 0.723341 0.404396 0.477888 0.723265 
0.722172 0.723997 0.723989 0.580927 0.722334 
0.283312 0.721382 0.717107 0.438358 0.721537 
0.477216 0.478256 0.723219 0.757941 0.723644 
0.477381 0.722239 0.477124 0.757065 0.479076 
0.478613 0.478344 0.477184 0.475937 0.722628 
0.722415 0.722025 0.477585 0.477436 0.754714 
0.721452 0.478667 0.725096 0.382407 0.477631 
0.442029 0.723369 0.7231 0.309453 0.476776 
0.354437 0.7191 0.723943 0.722618 0.475809 
0.621885 0.478274 0.727936 0.477269 0.597202 
0.477213 0.476829 0.723418 0.476765 0.721708 
0.675411 0.71805 0.724872 0.274264 0.724026 
0.476199 0.438333 0.687469 0.722543 0.758096 
0.475703 0.756723 0.721684 0.443025 0.562022 
0.723687 0.476081 0.722726 0.722788 0.500408 
0.519726 0.478223 0.443239 0.475891 0.723393 
0.720082 0.476243 0.474278 0.72184 0.475292 
0.722135 0.443459 0.728959 0.511587 0.512215 
0.371815 0.313153 0.688085 0.442612 0.512387 
0.688653 0.511259 0.477429 0.512719 0.510264 
0.686103 0.636263 0.689694 0.68791 0.722703 
0.512979 0.688369 0.688444 0.677328 0.476528 
0.690363 0.692611 0.510794 0.68609 0.429653 
0.512457 0.68694 0.510793 0.689554 0.721784 
0.686716 0.682832 0.689031 0.688763 0.559978 
0.687373 0.686842 0.64445 0.688307 0.509948 
0.414209 0.722847 0.689531 0.512576 0.687154 
0.688794 0.687139 0.486608 0.513964 0.462803 
0.514275 0.513222 0.511302 0.685697 0.474919 
0.513284 0.687244 0.686192 0.51183 0.687664 
0.689736 0.670916 0.71692 0.686348 0.478587 
0.688163 0.510261 0.329029 0.689815 0.687626 
0.514865 0.475883 0.508859 0.656643 0.601489 
0.513914 0.614774 0.478285 0.690561 0.510144 
0.687127 0.689734 0.510285 0.513462 0.512422 
0.689105 0.510401 0.72421 0.511658 0.513967 
0.471849 0.511514 0.687648 0.721353 0.511429 
0.688282 0.686816 0.688833 0.52725 0.478241 
0.511601 0.688366 0.565977 0.690312 0.509264 
0.512977 0.477842 0.501388 0.514027 0.477418 
0.688377 0.687599 0.688307 0.50959 0.685961 
0.443761 0.509336 0.511942 0.691563 0.346775 
0.718133 0.651001 0.543 0.689807 0.652903 
0.651387 0.65151 0.620672 0.514517 0.512919 
0.510812 0.54933 0.551436 0.549685 0.547671 
0.688437 0.686011 0.687522 0.54899 0.633556 
0.653672 0.477758 0.547193 0.653968 0.65025 
0.652755 0.653791 0.643777 0.654829 0.54691 
0.537731 0.654861 0.548579 0.65514 0.543519 
0.68717 0.654476 0.652038 0.655174 0.547799 
0.511657 0.5399 0.545526 0.545316 0.649858 
0.511619 0.54883 0.51169 0.688934 0.657013 
0.54843 0.65244 0.546141 0.652358 0.651767 
0.649735 0.544774 0.652298 0.654274 0.656829 
0.47916 0.65189 0.476981 0.652229 0.550081 