
TITLE     = "DG2D to Tecplot"
VARIABLES = "X"
"Y"
"RHO"
"U"
"V"
"VELOCITY_MAG"
"P"
"T"
"THETA1"
"THETA2"
ZONE T="ZONE 1"
STRANDID=0
ZONETYPE=FEQuadrilateral
DATAPACKING=BLOCK
VARLOCATION=([3-10]=CELLCENTERED)
DT=(SINGLE SINGLE SINGLE SINGLE SINGLE SINGLE SINGLE SINGLE SINGLE SINGLE)

Nodes=548, Elements=1006
0.05 0.05 -3.88578e-16 -3.88578e-16 
0.14 0.14 -3.88578e-16 -3.88578e-16 -3.88578e-16 
-3.88578e-16 -3.88578e-16 -3.88578e-16 -3.88578e-16 -3.88578e-16 
-3.88578e-16 -3.88578e-16 -3.88578e-16 -3.88578e-16 -3.88578e-16 
-3.88578e-16 -3.88578e-16 0.045 0.04 0.035 
0.03 0.025 0.02 0.015 0.01 
0.005 0.05 0.05 0.05 0.05 
0.05 0.05 0.05 0.05 0.05 
0.05 0.05 0.05 0.05 0.05 
0.05 0.005 0.01 0.015 0.02 
0.025 0.03 0.035 0.04 0.045 
0.135 0.13 0.125 0.12 0.115 
0.11 0.105 0.1 0.095 0.09 
0.085 0.08 0.075 0.07 0.065 
0.06 0.055 0.14 0.14 0.14 
0.14 0.14 0.14 0.14 0.14 
0.14 0.14 0.14 0.14 0.14 
0.14 0.14 0.055 0.06 0.065 
0.07 0.075 0.08 0.085 0.09 
0.095 0.1 0.105 0.11 0.115 
0.12 0.125 0.13 0.135 0.00441872 
0.00441736 0.004436 0.00447963 0.00443661 0.00442809 
0.00446324 0.0431093 0.0326026 0.0225849 0.012701 
0.0456369 0.0455014 0.0454191 0.0454932 0.0455855 
0.045728 0.0455948 0.00686385 0.0173913 0.0275096 
0.0374057 0.00459018 0.00438888 0.00447111 0.00446296 
0.00440999 0.00444058 0.0041588 0.0275527 0.0378107 
0.0176153 0.00824326 0.0454589 0.0454265 0.04545 
0.0455365 0.045657 0.0457159 0.0458195 0.0121629 
0.0224825 0.0324913 0.0418324 0.00884743 0.0407955 
0.00896493 0.00883337 0.00884395 0.0202569 0.0089191 
0.00960327 0.00913755 0.0409532 0.00891496 0.0299881 
0.0251115 0.0351123 0.0407922 0.0406239 0.00869536 
0.0152134 0.040863 0.0411027 0.0413788 0.0414018 
0.0147973 0.0250314 0.035068 0.00897282 0.00884337 
0.00878903 0.00894468 0.0408949 0.0412111 0.0411742 
0.0410198 0.0415391 0.0199257 0.0300758 0.0181923 
0.0375368 0.0321532 0.0131811 0.0134605 0.0361954 
0.01281 0.0365476 0.0132023 0.0138665 0.0276681 
0.0224389 0.0368659 0.0372007 0.01732 0.0364307 
0.0130739 0.0369863 0.013514 0.0134359 0.0360531 
0.0135036 0.0133544 0.0133615 0.0364685 0.0366656 
0.0228464 0.0274905 0.0372549 0.0363487 0.0327417 
0.0127553 0.0325643 0.0180184 0.0177933 0.0339523 
0.0318517 0.0170449 0.0179754 0.030792 0.0332087 
0.0195711 0.0181048 0.0320417 0.0316947 0.0164669 
0.0181104 0.0313771 0.0180654 0.0173838 0.0319544 
0.0321959 0.0248135 0.0206575 0.0253095 0.0174691 
0.029892 0.0221651 0.0214055 0.0273201 0.0228112 
0.0263727 0.0271974 0.0269534 0.0226528 0.0227146 
0.0276684 0.0225027 0.0274642 0.0228787 0.0284579 
0.027379 0.0227541 0.0541483 0.054455 0.0544357 
0.0544198 0.0543809 0.0543673 0.0543567 0.0543501 
0.0543497 0.0543572 0.0543884 0.0544802 0.0546144 
0.0542672 0.0534098 0.133037 0.122575 0.112549 
0.102561 0.0925489 0.0826102 0.0726712 0.0625365 
0.057671 0.135875 0.135809 0.135651 0.135618 
0.135581 0.135408 0.135325 0.0568516 0.0673419 
0.07744 0.0874743 0.0975143 0.107513 0.117415 
0.126932 0.131627 0.107566 0.127754 0.11752 
0.0975524 0.0875651 0.077664 0.0676187 0.135623 
0.135945 0.135709 0.135614 0.135497 0.13535 
0.135691 0.0621381 0.0724076 0.0824555 0.0924955 
0.102523 0.11248 0.122242 0.0900736 0.0588264 
0.0589122 0.058766 0.0587489 0.0587265 0.0587067 
0.058704 0.0587099 0.0587266 0.0587989 0.0590518 
0.0596068 0.125008 0.095086 0.105152 0.130493 
0.131338 0.0802277 0.115121 0.0704073 0.130889 
0.131483 0.0851154 0.131225 0.131239 0.13172 
0.131219 0.119963 0.0591113 0.13068 0.0698001 
0.110174 0.0798781 0.0899655 0.100058 0.110037 
0.119878 0.075371 0.132083 0.100117 0.131105 
0.0652927 0.131244 0.130709 0.0647365 0.0849132 
0.0748443 0.0950184 0.105071 0.114964 0.124499 
0.128582 0.122093 0.0630798 0.0631493 0.063128 
0.0630706 0.0630644 0.0630797 0.0630909 0.0630964 
0.063189 0.0637306 0.092579 0.11746 0.127108 
0.112589 0.126825 0.112912 0.107676 0.082599 
0.0722022 0.126137 0.068421 0.127289 0.126817 
0.117795 0.125898 0.126773 0.0822879 0.102721 
0.0924919 0.102661 0.0672228 0.126001 0.126534 
0.0976452 0.126867 0.0731853 0.126866 0.122837 
0.0875439 0.107828 0.0638334 0.0772251 0.0627122 
0.0873865 0.0975919 0.12775 0.077822 0.0676322 
0.0674369 0.0674204 0.0674561 0.0675016 0.0675031 
0.0674343 0.0674297 0.122561 0.0798409 0.0951369 
0.0795371 0.100256 0.0899086 0.110402 0.123089 
0.0848519 0.110663 0.0847166 0.119458 0.122296 
0.100234 0.105388 0.121375 0.0744351 0.0694379 
0.120161 0.0950916 0.122245 0.0711932 0.122508 
0.105386 0.0670457 0.115171 0.0752135 0.0900238 
0.116093 0.122451 0.0675702 0.12169 0.0714485 
0.0717484 0.0718188 0.0719091 0.0719968 0.0719489 
0.0716316 0.11751 0.11764 0.122459 0.118168 
0.118519 0.0762931 0.081625 0.0874389 0.0727114 
0.0764926 0.103046 0.113636 0.0976908 0.0926443 
0.113589 0.118124 0.117926 0.118338 0.108093 
0.0717609 0.0925864 0.102799 0.0818851 0.116227 
0.0977945 0.108374 0.087233 0.113929 0.111975 
0.076274 0.0764027 0.0760328 0.0808963 0.085436 
0.0786805 0.110714 0.113032 0.105925 0.113883 
0.11336 0.0766009 0.0761753 0.0953988 0.105258 
0.0758316 0.0903531 0.0901648 0.0951475 0.100543 
0.080513 0.0843652 0.107497 0.100095 0.107818 
0.0806835 0.080691 0.0848378 0.0801522 0.0972823 
0.102259 0.103115 0.110372 0.0983553 0.109151 
0.0884917 0.0930728 0.108961 0.0926068 0.0846292 
0.102984 0.0991606 0.0852298 0.105928 0.104124 
0.0883402 0.0893293 0.0852837 0.0941408 0.095928 
0.0897224 0.0960789 0.100817 0.0906909 
2.27374e-15 0.08 2.27374e-15 0.08 
2.27374e-15 0.08 0.075 0.07 0.065 
0.06 0.055 0.05 0.045 0.04 
0.035 0.03 0.025 0.02 0.015 
0.01 0.005 0.08 0.08 0.08 
0.08 0.08 0.08 0.08 0.08 
0.08 0.005 0.01 0.015 0.02 
0.025 0.03 0.035 0.04 0.045 
0.05 0.055 0.06 0.065 0.07 
0.075 2.27374e-15 2.27374e-15 2.27374e-15 2.27374e-15 
2.27374e-15 2.27374e-15 2.27374e-15 2.27374e-15 2.27374e-15 
0.08 0.08 0.08 0.08 0.08 
0.08 0.08 0.08 0.08 0.08 
0.08 0.08 0.08 0.08 0.08 
0.08 0.08 0.005 0.01 0.015 
0.02 0.025 0.03 0.035 0.04 
0.045 0.05 0.055 0.06 0.065 
0.07 0.075 2.27374e-15 2.27374e-15 2.27374e-15 
2.27374e-15 2.27374e-15 2.27374e-15 2.27374e-15 2.27374e-15 
2.27374e-15 2.27374e-15 2.27374e-15 2.27374e-15 2.27374e-15 
2.27374e-15 2.27374e-15 2.27374e-15 2.27374e-15 0.073068 
0.062485 0.0523731 0.0423956 0.032436 0.0224571 
0.0125876 0.0756118 0.0757056 0.0757568 0.075538 
0.00684692 0.0173529 0.0274681 0.0375397 0.0475266 
0.0574429 0.0673489 0.00434621 0.00436078 0.00444677 
0.00441371 0.067734 0.0573827 0.0473831 0.0374179 
0.0274564 0.0174907 0.00815984 0.0757731 0.0754943 
0.0756791 0.0757735 0.0121385 0.0224228 0.0325115 
0.0425436 0.052485 0.0624263 0.0717924 0.00446898 
0.00440969 0.00441113 0.00413566 0.0649219 0.0248951 
0.0397887 0.0547189 0.0298803 0.0714979 0.0198878 
0.0706789 0.00932699 0.0350954 0.0348322 0.0715723 
0.0715259 0.0713502 0.0705048 0.00907334 0.0597108 
0.0712739 0.0300115 0.0451252 0.0549555 0.0649064 
0.00861035 0.0088934 0.00869946 0.0447738 0.0149144 
0.0249305 0.0497446 0.0198043 0.0500681 0.0147265 
0.0401403 0.0598519 0.00872775 0.00892442 0.0673498 
0.0620638 0.0675375 0.0569997 0.0371363 0.0274877 
0.0618099 0.0428263 0.0273463 0.0172202 0.0135816 
0.0131838 0.0526509 0.0574045 0.012934 0.0171093 
0.0224977 0.0668898 0.0471062 0.0521022 0.0222027 
0.0421173 0.0667477 0.0322049 0.0377877 0.0477772 
0.0672032 0.0672967 0.0125873 0.0326886 0.0133913 
0.0126127 0.0553815 0.0545468 0.029505 0.0639314 
0.0355296 0.0206245 0.0343814 0.018902 0.0598939 
0.0171158 0.044375 0.045627 0.0303415 0.0636227 
0.0494517 0.0249563 0.0393434 0.0593812 0.0406116 
0.0505902 0.0179067 0.0628895 0.0627087 0.0248495 
0.0632608 0.0264799 0.0216868 0.0384827 0.0518159 
0.0229921 0.0333925 0.0282376 0.0364318 0.0414788 
0.0537051 0.0314226 0.0486292 0.0575983 0.0586286 
0.0435586 0.0465816 0.0081473 0.0125732 0.0174806 
0.0224555 0.0274608 0.0324548 0.0374453 0.0424316 
0.0474106 0.052388 0.0573832 0.0624262 0.0675113 
0.0723628 0.0766016 0.0755929 0.0758181 0.0757479 
0.0756651 0.0756727 0.075762 0.0759084 0.0755402 
0.0757835 0.00706306 0.0174327 0.0274061 0.0373642 
0.0473437 0.0573189 0.067246 0.00433442 0.0043048 
0.0043728 0.00443378 0.00442976 0.00441256 0.00437765 
0.00413416 0.00477061 0.0756854 0.075533 0.0758591 
0.0756662 0.0756956 0.0758628 0.0757848 0.0323886 
0.0124082 0.0224161 0.0423477 0.0523318 0.0623034 
0.0717394 0.00443722 0.00432756 0.00441469 0.00443529 
0.00442723 0.00439014 0.0043028 0.0713464 0.0148837 
0.0198814 0.024943 0.0299255 0.0349034 0.0398819 
0.0448425 0.0497813 0.0547125 0.0596866 0.0648307 
0.0705576 0.0715175 0.0713392 0.0713332 0.0704117 
0.0248006 0.0715865 0.071576 0.07185 0.0546145 
0.0197955 0.0714056 0.0446616 0.0397023 0.0148649 
0.034719 0.0718737 0.00929294 0.0646831 0.00859322 
0.0713937 0.0087979 0.00887377 0.00885766 0.00881748 
0.00881046 0.0718415 0.00996794 0.071332 0.049632 
0.0713897 0.0297634 0.0595844 0.00854071 0.00886314 
0.00869224 0.00886515 0.00885463 0.00875821 0.00857761 
0.00796572 0.0682611 0.0225184 0.0274222 0.032357 
0.0373388 0.0422931 0.0472065 0.0520683 0.0568856 
0.0617147 0.0666581 0.0670182 0.0130232 0.0220927 
0.0131941 0.0468895 0.0671421 0.0133069 0.0671176 
0.0129276 0.0666708 0.0677945 0.017043 0.0370156 
0.0675355 0.0616886 0.0320345 0.0132986 0.0669974 
0.0133201 0.0133118 0.0128162 0.0567737 0.0518293 
0.0670219 0.0270931 0.0680608 0.0419698 0.0136707 
0.0669935 0.0670135 0.0171757 0.0131492 0.0125506 
0.0133396 0.0133028 0.0122023 0.0675304 0.0297541 
0.0347961 0.0397496 0.0446635 0.0495121 0.054255 
0.0588564 0.0633492 0.0242852 0.0628512 0.0627499 
0.0177389 0.0177718 0.0178363 0.0178074 0.0193199 
0.0625335 0.0627142 0.017857 0.0169456 0.0342793 
0.0627075 0.0626619 0.0639943 0.0174223 0.0169668 
0.0588243 0.017757 0.0292436 0.0647308 0.0441502 
0.0178329 0.0205976 0.0174859 0.0637711 0.0626877 
0.0629668 0.0392592 0.0249284 0.0537802 0.0215497 
0.0372264 0.0421197 0.0469915 0.0518164 0.0564555 
0.0608207 0.0313785 0.0261956 0.0489322 0.0415281 
0.0212899 0.0591826 0.0575479 0.0583134 0.0267029 
0.0221204 0.0222809 0.0584853 0.0584741 0.0585421 
0.022342 0.0463155 0.0365078 0.0505833 0.058324 
0.0322538 0.0222691 0.0583706 0.0224499 0.0543419 
0.0222023 0.0225196 0.0224769 0.0438969 0.0279031 
0.0444054 0.0493648 0.0347264 0.051807 0.053786 
0.0266568 0.053924 0.0338465 0.0268774 0.0389079 
0.0491998 0.0543431 0.0395204 0.0267594 0.0540075 
0.030308 0.054476 0.0267536 0.0543147 0.0266024 
0.0366857 0.0276973 0.0496161 0.0541357 0.0319603 
0.0466526 0.0416697 0.0488137 0.0316057 0.0499438 
0.0497438 0.0305903 0.0411969 0.0314235 0.0452492 
0.0507574 0.0313837 0.0369063 0.0502615 0.0336304 
0.035689 0.0455313 0.0438632 0.0408287 0.0452902 
0.0309644 0.0465264 0.0387841 0.045836 0.0366194 
0.0355994 0.0417534 0.0407401 0.0411759 
0.000108171 0.000102271 0.000100765 0.000100768 
0.000100975 0.00010087 0.000100867 0.000100937 0.000104279 
0.00012047 0.00012364 0.000125427 0.000125354 0.000126177 
0.000118719 0.000122936 0.000123562 0.000123524 0.000124264 
0.000124725 0.000124354 0.000124388 0.000129351 0.000124218 
0.000123716 0.000123617 0.000123898 0.000120365 0.000114109 
0.000122444 0.000119339 0.000101949 0.000119511 0.000100601 
0.000100924 0.000100942 0.000100807 0.000100995 0.000119549 
0.00010145 0.00012316 0.000125565 0.000123993 0.000124812 
0.000124055 0.000122777 0.000125223 0.000119962 0.000120529 
0.000123188 0.000123505 0.00012408 0.000124471 0.000124179 
0.000124331 0.000124618 0.000124475 0.000123656 0.00012365 
0.000126507 0.000119695 0.000123412 0.00011959 0.000119472 
0.000119618 0.000119561 0.000117602 0.000122648 0.00012428 
0.000123934 0.000123823 0.000123313 0.000124177 0.000123353 
0.000124306 0.00012408 0.000121353 0.00011879 0.000123909 
0.000123694 0.0001241 0.000122899 0.000123597 0.000124368 
0.000123987 0.000119504 0.000119775 0.000124391 0.000124414 
0.00012272 0.000122985 0.00012354 0.000122776 0.000123452 
0.000123306 0.000122956 0.000123016 0.000124033 0.000123326 
0.000125774 0.000128088 0.000124192 0.000123184 0.000124521 
0.000120097 0.000124521 0.000124557 0.000123483 0.000123662 
0.000123974 0.000124461 0.00012412 0.000127438 0.000123353 
0.000122286 0.000124858 0.00011648 0.000123706 0.000122087 
0.000124014 0.000123884 0.000124419 0.000124168 0.000124884 
0.000123299 0.000125352 0.000133878 0.00012375 0.000123353 
0.000123306 0.000124452 0.000124366 0.000126734 0.000122802 
0.000124927 0.000123268 0.000124397 0.000123671 0.000124006 
0.000123865 0.000124388 0.000126557 0.000121172 0.000124679 
0.000123084 0.000121466 0.000125103 0.000124541 0.000123897 
0.000124639 0.000124401 0.000125825 0.000124422 0.000123798 
0.000124628 0.000124352 0.000124257 0.000123431 0.000122525 
0.000124466 0.000122131 0.000119997 0.000123869 0.000127096 
0.000123776 0.000125316 0.000123743 0.000123992 0.000124453 
0.000124374 0.000123853 0.000124751 0.000122716 0.000123881 
0.000123866 0.000123755 0.000123338 0.00012645 0.000124781 
0.000123346 0.000123861 0.000123794 0.00012147 0.000124518 
0.000124077 0.000123327 0.000124786 0.000123629 0.000123773 
0.000125538 0.00012439 0.00012548 0.000123156 0.000124588 
0.000124995 0.000124119 0.000122562 0.000125428 0.000127017 
0.000122926 0.000126351 0.000123966 0.000123909 0.000124346 
0.000123077 0.000123852 0.000123866 0.000124354 0.000122723 
0.000121625 0.000124615 0.000123699 0.00012425 0.000124175 
0.000123976 0.000124155 0.000124112 0.000124372 0.000124863 
0.000124395 0.000124105 0.000125104 0.000123201 0.000123105 
0.000124285 0.000124278 0.000123094 0.000122008 0.000124241 
0.000130485 0.000124041 0.000124755 0.000123955 0.00012381 
0.000122214 0.000126079 0.000124003 0.000124433 0.000122168 
0.000119102 0.000123859 0.000123954 0.000125276 0.00012064 
0.00012029 0.000123753 0.000124653 0.000126479 0.000123991 
0.000131474 0.000124917 0.000124014 0.000118858 0.000124101 
0.000124073 0.000122836 0.000125593 0.00012444 0.000122708 
0.000123726 0.000124122 0.000123685 0.000124063 0.000124032 
0.000122671 0.00011845 0.000124238 0.000124348 0.000123215 
0.000123288 0.000123971 0.000124089 0.000124138 0.000123481 
0.000123744 0.000124177 0.000123954 0.000124265 0.000123481 
0.000124626 0.000121417 0.000125886 0.000124159 0.00012384 
0.000128603 0.000125279 0.000124376 0.000124173 0.000123262 
0.000123674 0.000122624 0.000121041 0.000123513 0.000118464 
0.000122721 0.000125055 0.000124287 0.000124247 0.000127417 
0.000124397 0.000121586 0.000122628 0.000124815 0.000127361 
0.00012703 0.000124721 0.000123871 0.000124007 0.000127153 
0.000125569 0.00012568 0.000124141 0.000124405 0.000124477 
0.000124998 0.000124514 0.000124394 0.000124219 0.000124111 
0.000122177 0.000124572 0.000124444 0.000123153 0.000124608 
0.000123263 0.000124839 0.000125755 0.000121902 0.000123492 
0.000121938 0.000125289 0.000124145 0.000123528 0.000123202 
0.00012418 0.000124203 0.00012343 0.000124751 0.000124408 
0.000122769 0.000127808 0.00012471 0.000124716 0.000123862 
0.000120663 0.000124183 0.000123523 0.000123557 0.000123796 
0.000124133 0.000124078 0.000125982 0.000124002 0.00012383 
0.000122755 0.00012433 0.000128498 0.000123778 0.000124344 
0.000121612 0.000124493 0.000123557 0.000124825 0.000124671 
0.000124683 0.000124855 0.000123981 0.000124923 0.000123939 
0.000124973 0.000123903 0.000124994 0.000123878 0.000124985 
0.000125124 0.000124969 0.000125386 0.000124993 0.000125671 
0.000124937 0.000125929 0.000124619 0.000124994 0.000124435 
0.000118037 0.000120171 0.000124342 0.000120693 0.000123939 
0.000125509 0.000125458 0.000125448 0.000125551 0.000125573 
0.000124971 0.000126011 0.0001259 0.000123806 0.000128483 
0.000118948 0.000123754 0.000124841 0.000124085 0.000124433 
0.000124303 0.000123903 0.000124094 0.000121811 0.000124018 
0.000123758 0.000123721 0.000123616 0.000123482 0.000123496 
0.000123807 0.000125562 0.000126751 0.000124714 0.00013076 
0.000129254 0.000122644 0.000125415 0.000124056 0.000125093 
0.000124123 0.000125567 0.00012281 0.000125489 0.000125614 
0.000125297 0.00012491 0.000124339 0.000124445 0.000122952 
0.000124916 0.000124614 0.000124303 0.000124396 0.000124105 
0.00012379 0.000124617 0.000124445 0.000123775 0.000123688 
0.000123541 0.000123465 0.0001236 0.00012436 0.000122386 
0.000120507 0.000122859 0.00012292 0.000123236 0.000122637 
0.000123772 0.000124219 0.000124413 0.000124626 0.000124205 
0.000124003 0.000124236 0.000124194 0.000124243 0.000124069 
0.000123282 0.000123096 0.000124524 0.000124858 0.000123361 
0.000124202 0.000124206 0.000124213 0.000124178 0.000123942 
0.00012205 0.000121013 0.000123081 0.000122433 0.000122864 
0.000123922 0.00012343 0.000124281 0.000123373 0.000121736 
0.000124432 0.000125342 0.000123651 0.000124872 0.000123175 
0.000124977 0.000123211 0.000124842 0.000123175 0.000124892 
0.000123138 0.000124939 0.000123151 0.000124898 0.000123162 
0.000124816 0.000123128 0.000124762 0.000123118 0.000124819 
0.000123088 0.000125441 0.000126115 0.00012509 0.000122824 
0.0001241 0.000124318 0.000123885 0.000124256 0.000124809 
0.000128053 0.000123625 0.000124367 0.000124503 0.000123505 
0.000123575 0.000124205 0.000123922 0.000124489 0.000124418 
0.000124053 0.000123991 0.000124283 0.000124799 0.000123578 
0.000123923 0.000124163 0.000124387 0.000122661 0.000125263 
0.000122874 0.000124079 0.000125599 0.000124302 0.000123842 
0.000126164 0.000124029 0.000123931 0.00012377 0.000123803 
0.000123799 0.000123814 0.000124037 0.000128321 0.000121822 
0.000123817 0.000124255 0.000123928 0.00012873 0.000123874 
0.000124507 0.000121089 0.00012402 0.000127505 0.000124508 
0.00012294 0.000123285 0.000126864 0.000123969 0.00012339 
0.000124327 0.000124003 0.000119799 0.000124273 0.000124451 
0.000124044 0.000125151 0.000124696 0.000123278 0.000123374 
0.00012431 0.000124018 0.000124049 0.00012423 0.000124314 
0.000123847 0.000123764 0.000123817 0.000124386 0.000124204 
0.000125365 0.000119616 0.000132422 0.000123073 0.000124069 
0.000124351 0.000124254 0.000122579 0.000124419 0.000124018 
0.000124288 0.000121949 0.000124367 0.000124214 0.000124317 
0.00012469 0.00012178 0.000122785 0.000123575 0.000123309 
0.000124685 0.000123166 0.000124916 0.000123217 0.000124871 
0.000123307 0.000124718 0.000123318 0.000124519 0.000123101 
0.00012436 0.000122631 0.000124335 0.000123609 0.000121411 
0.000124122 0.000124318 0.000123624 0.000124194 0.000123732 
0.000123794 0.000124096 0.000124264 0.000123617 0.000124073 
0.000124692 0.000124109 0.000126565 0.000125671 0.000129533 
0.000123074 0.000122356 0.000123844 0.000124107 0.000123901 
0.000124607 0.000119787 0.000122982 0.000123348 0.000125096 
0.000123703 0.000124135 0.000124091 0.000124151 0.000123881 
0.000123615 0.000124474 0.000124635 0.000124418 0.000123099 
0.000123814 0.000123833 0.000124766 0.000124725 0.000124197 
0.000123852 0.000123817 0.000124051 0.000123513 0.000123326 
0.000123986 0.000124425 0.000123882 0.000127381 0.000122907 
0.00012452 0.000123698 0.000124058 0.000123968 0.000124118 
0.000124312 0.000125261 0.000124148 0.000122218 0.000124217 
0.000124007 0.00012414 0.000124179 0.000125996 0.000123728 
0.000125073 0.000124139 0.000122599 0.000119132 0.00012462 
0.000124315 0.000124548 0.000123007 0.000124083 0.00012508 
0.000124384 0.00012499 0.000124486 0.000125394 0.000122443 
0.000123723 0.000123109 0.000125041 0.000123211 0.000124877 
0.000123411 0.000124716 0.000123633 0.000124435 0.000123684 
0.000124052 0.00012322 0.000123665 0.000121855 0.000123324 
0.000123495 0.000123905 0.000124759 0.000124387 0.000124149 
0.000124245 0.000123493 0.000123964 0.000123385 0.000122001 
0.000124416 0.000123849 0.000124701 0.000124475 0.000123859 
0.000124118 0.000124232 0.000124073 0.000126301 0.000123605 
0.00012412 0.000124071 0.000124062 0.000124501 0.000124325 
0.000123756 0.000124282 0.000124414 0.000124582 0.000119876 
0.000123752 0.000124883 0.000121278 0.000124827 0.00012372 
0.000124126 0.000124574 0.000123313 0.000123853 0.000123387 
0.000118978 0.000124026 0.000123304 0.000124684 0.000118915 
0.000123544 0.000123724 0.000126303 0.000123252 0.00012305 
0.000124213 0.000123776 0.000120929 0.000124883 0.000121756 
0.000123607 0.000124851 0.000122694 0.000129467 0.000123895 
0.000125032 0.00012419 0.000123509 0.000124387 0.000123613 
0.000124311 0.000123266 0.000121293 0.000124508 0.000127155 
0.000123092 0.000123399 0.000124688 0.000123737 0.000124498 
0.000124208 0.000124231 0.000124419 0.000123658 0.000123458 
0.000122549 0.000123205 0.000122951 0.000124241 0.000122848 
0.000123026 0.000124366 0.000123502 0.000124546 0.00012358 
0.000132008 0.000125486 0.00012511 0.000126797 0.000123096 
0.000123392 0.000122247 0.000124377 0.000126466 0.000126377 
0.000124782 0.000122555 0.000123181 0.000123312 0.00012701 
0.00012461 0.000124244 0.000123947 0.000124054 0.00012314 
0.000122444 0.0001248 0.00012787 0.000124685 0.000125143 
0.000123666 0.000123647 0.000125167 0.000127563 0.000124643 
0.000123864 0.000125512 0.000120483 0.000124082 0.000122622 
0.000123309 0.000123628 0.000124221 0.000124303 0.000124434 
0.000124215 0.000122954 0.000123288 0.000126734 0.000123516 
0.00012496 0.000122764 0.000124061 0.000123693 0.000125881 
0.000124067 0.000123824 0.000124698 0.000126217 0.000125018 
0.000125289 0.000121649 0.000123756 0.000123659 0.000123627 
0.00012321 0.000125194 0.000121464 0.00012218 0.000127564 
0.00012452 0.00012274 0.000121751 0.000122724 0.000124352 
0.000125219 0.000122426 0.000124705 0.000123182 0.00012311 
0.000124505 0.0001236 0.000123199 0.00012414 0.000123155 
0.000119122 0.000123606 0.000125654 0.000124623 0.000124463 
0.000123471 0.000123555 0.000124517 0.000128528 0.000118702 
0.000124569 0.000121508 0.000124557 0.000124022 0.000123342 
0.000123341 0.000123456 0.000122843 0.00012432 0.000122888 
0.00012463 0.000124702 0.000124306 0.000123448 0.000125605 
0.000124072 0.000123591 0.0001239 0.000124861 0.000126114 
0.000125161 0.000124261 0.00012581 0.000124526 0.00012671 
0.000123288 0.000123884 0.000124869 0.00012492 0.000124948 
0.000124186 0.000118975 0.000124619 0.000127402 0.000126685 
0.000126185 0.000125117 0.000124225 0.000125335 0.000125042 
0.000123754 0.000126365 0.000125477 0.000127506 0.000123845 
0.000122296 0.000130246 0.000125374 0.000121644 0.000123721 
0.000123295 0.000121651 0.000124292 0.00012407 0.000127086 
0.000122945 0.000118126 0.000124106 0.000125302 0.000123946 
0.000124415 0.000124758 0.000124171 0.000126108 0.000122972 
0.000125494 0.00012183 0.000120173 0.000123904 0.000126913 
0.000125215 0.000124886 0.000123971 0.000121044 0.000122166 
0.000118881 0.000125728 0.000121746 0.000123812 0.00012294 
0.00012481 0.000124094 0.000122313 0.000123073 0.000125785 
0.000123416 0.000118953 0.000123287 0.000126474 0.00012632 
0.000125245 0.000123323 0.000124497 0.000124321 0.000125365 
0.000126523 0.000124375 0.000127196 0.000123038 0.000126142 
0.000124722 0.000125231 0.000127413 0.000123028 0.000120208 
0.000122341 0.000123415 0.00012057 0.000123872 0.000123734 
0.000125851 0.000125122 
989.296 1074.46 1076.61 1075.82 
1075.84 1075.7 1075.62 1075.04 1071.42 
1014.73 1004.59 1002.7 1001.72 1005.81 
1097.45 1098.14 1098.28 1098.25 1098.46 
1098.55 1098.35 1098.38 1094.02 1098.13 
1098.15 1098.17 1098.26 1090 1091.7 
1098.1 1093.4 1076.88 1093.19 1075.73 
1075.84 1075.79 1075.58 1076.89 1093.24 
1073.35 1092.3 1001.41 1092.88 1006.54 
1092.68 1092.15 1003.16 1092.95 1000.72 
1098.17 1098.24 1098.43 1098.5 1098.33 
1098.35 1098.52 1098.27 1098.17 1098.17 
1098.47 1093.28 1091.05 1093.25 1093.22 
1093.26 1093.33 1093.79 1092.22 1098.35 
1098.23 1098.18 1098.09 1098.36 1097.99 
1098.43 1098.38 1097.87 1093.18 1098.21 
1098.15 1098.33 1098 1098.34 1098.43 
1098.35 1093.23 1093.28 1098.37 1098.42 
1092.4 1098.09 1098.31 1097.29 1098.25 
1097.78 1097.71 1097.71 1099.24 1097.76 
1099.43 1098.16 1098.46 1097.75 1098.48 
1096.53 1099.27 1099.33 1098.29 1098.29 
1099.04 1098.49 1099.09 1099.02 1098.24 
1097.57 1098.54 1094.89 1099.11 1098.1 
1098.42 1098.21 1098.52 1098.36 1098.64 
1098.11 1099.33 1100.19 1098.24 1098.11 
1097.78 1098.46 1097.57 1098.9 1097.67 
1098.57 1097.77 1098.44 1098.29 1098.28 
1098.04 1098.52 1098.57 1098.01 1098.44 
1098.19 1097.87 1097.87 1098.47 1098.23 
1098.51 1098.45 1098.76 1098.46 1098.17 
1098.57 1098.37 1098.48 1098.1 1098.05 
1098.4 1098.17 1097.72 1098.26 1098.94 
1098.3 1098.48 1098.24 1098.3 1098.45 
1098.42 1098.2 1098.5 1097.98 1098.19 
1098.26 1098.35 1098.23 1098.82 1098.35 
1098.14 1098.24 1098.36 1097.8 1098.49 
1098.44 1098.13 1098.36 1098.23 1098.24 
1098.64 1098.53 1098.76 1097.98 1098.44 
1098.56 1098.37 1097.99 1098.69 1098.94 
1097.95 1098.64 1098.26 1098.25 1098.43 
1098.19 1098.25 1098.24 1098.44 1098.18 
1097.87 1098.6 1098.2 1098.44 1098.45 
1098.23 1098.46 1098.23 1098.42 1098.55 
1098.3 1098.24 1098.56 1098.15 1098.14 
1098.42 1098.43 1098.05 1098.01 1098.41 
1099.63 1098.41 1098.19 1098.17 1098.28 
1098.1 1098.51 1098.39 1098.53 1097.97 
1097.38 1098.24 1098.24 1098.46 1097.79 
1097.61 1098.4 1098.39 1098.63 1098.25 
1100 1098.15 1098.4 1097.42 1098.28 
1098.39 1098.29 1098.81 1098.24 1097.73 
1098.15 1098.3 1098.35 1098.39 1098.27 
1097.99 1097.16 1098.32 1098.42 1098.15 
1098.22 1098.31 1098.29 1098.4 1098.15 
1098.41 1098.39 1098.4 1098.29 1098.32 
1098.34 1097.97 1098.67 1098.3 1098.31 
1099.08 1098.67 1098.31 1098.28 1098.4 
1098.33 1097.92 1097.8 1098.27 1097.34 
1098.38 1098.65 1098.43 1098.41 1098.99 
1098.32 1097.84 1098.01 1098.35 1098.95 
1098.63 1098.41 1098.36 1098.21 1098.87 
1098.58 1098.66 1098.4 1098.34 1098.43 
1098.48 1098.37 1098.35 1098.32 1098.41 
1098.04 1098.36 1098.49 1098.23 1098.4 
1097.85 1098.52 1098.73 1098.04 1098.23 
1097.81 1098.59 1098.42 1098.32 1098.27 
1098.32 1098.39 1098.15 1098.58 1098.34 
1098.17 1099 1098.39 1098.5 1098.37 
1097.72 1098.42 1098.31 1098.23 1098.22 
1098.28 1098.35 1098.56 1098.38 1098.19 
1098.14 1098.43 1098.82 1098.35 1098.47 
1097.81 1098.35 1098.25 1098.46 1098.5 
1098.43 1098.55 1098.25 1098.56 1098.24 
1098.57 1098.23 1098.58 1098.23 1098.58 
1098.53 1098.57 1098.59 1098.58 1098.64 
1098.57 1098.69 1098.53 1098.55 1098.43 
1089.24 982.826 1099.94 1014.67 1004.91 
1000.58 1001.86 1003.39 1003.26 1001.7 
998.853 1005.67 999.993 1092.27 1089.91 
1097.13 1097.77 1098 1097.83 1097.98 
1097.97 1097.93 1097.99 1098.02 1098.09 
1098.18 1098.2 1098.19 1098.16 1098.17 
1098.23 1098.48 1098.66 1098.45 1099.58 
1094.12 1092.27 1003.03 1092.88 1005.88 
1092.51 999.723 1092.37 1003.37 1002.88 
999.804 1001.14 1098.46 1098 1092.11 
1097.98 1097.99 1098.36 1097.98 1097.95 
1097.92 1098.11 1098.29 1098.2 1098.2 
1098.17 1098.16 1098.19 1098.33 1092.52 
1098 1092.39 1092.34 1092 1092.03 
1098.27 1098.35 1098.38 1098.39 1098.17 
1098.38 1098.41 1098.41 1098.41 1098.38 
1098.23 1091.87 1098.39 1098.43 1098.3 
1098.41 1098.41 1098.41 1098.4 1098.35 
1098.01 1097.71 1092.21 1092.11 1092.38 
1098.28 1098.23 1098.36 1098.29 1097.95 
1099.26 1098.55 1098.19 1098.5 1098.1 
1098.62 1098.1 1098.58 1098.09 1098.56 
1098.09 1098.57 1098.09 1098.57 1098.09 
1098.55 1098.09 1098.54 1098.1 1098.55 
1098.03 1098.73 1098.65 1098.46 1098.36 
1099.08 1099.23 1098.35 1099.22 1099.2 
1099.14 1098.19 1099.33 1099.34 1099.2 
1098.29 1098.37 1098.3 1099.3 1098.43 
1098.35 1098.34 1098.35 1098.47 1098.21 
1098.33 1098.33 1099.29 1098.15 1098.57 
1098.14 1098.29 1099.35 1099.26 1098.34 
1098.61 1098.28 1098.26 1098.24 1098.24 
1098.26 1099.28 1098.34 1099.27 1097.72 
1098.21 1099.22 1098.36 1098.97 1098.33 
1098.39 1098 1098.37 1099.07 1098.48 
1098.18 1099.02 1098.98 1098.37 1098.26 
1098.46 1098.34 1097.64 1098.35 1098.39 
1098.38 1099.24 1098.46 1098.23 1098.12 
1098.43 1098.28 1098.28 1098.42 1098.43 
1098.25 1098.24 1098.24 1098.34 1098.35 
1098.29 1097.63 1100.08 1098.22 1098.39 
1098.44 1098.42 1098.23 1098.45 1098.36 
1098.34 1098.13 1098.44 1098.41 1098.43 
1098.18 1097.76 1097.96 1098.24 1098.12 
1098.51 1098.09 1098.57 1098.1 1098.56 
1098.12 1098.53 1098.12 1098.5 1098.08 
1098.47 1098.03 1098.47 1098.34 1097.85 
1098.44 1098.35 1098.16 1098.38 1098.23 
1098.34 1098.36 1098.4 1098.22 1098.38 
1098.46 1098.3 1098.67 1098.65 1099.49 
1098.19 1098.03 1098.31 1098.35 1098.33 
1098.54 1097.58 1098.12 1098.25 1098.47 
1098.3 1098.32 1098.29 1098.33 1098.25 
1098.21 1098.45 1098.44 1098.46 1098.23 
1098.14 1098.33 1098.45 1098.41 1098.33 
1098.32 1098.29 1098.28 1098.27 1098.13 
1098.35 1098.38 1098.28 1098.96 1098.1 
1098.4 1098.29 1098.35 1098.32 1098.34 
1098.36 1098.51 1098.31 1098.1 1098.42 
1098.27 1098.36 1098.41 1098.88 1098.23 
1098.52 1098.01 1097.96 1097.32 1098.48 
1098.44 1098.46 1098.2 1098.35 1098.43 
1098.44 1098.48 1098.46 1098.48 1098.23 
1098.2 1098.08 1098.6 1098.1 1098.57 
1098.13 1098.53 1098.17 1098.48 1098.18 
1098.41 1098.09 1098.35 1097.84 1098.41 
1098.36 1098.35 1098.44 1098.19 1098.32 
1098.32 1098.19 1098.26 1098.19 1098.08 
1098.39 1098.27 1098.42 1098.46 1098.27 
1098.29 1098.43 1098.4 1098.54 1098.28 
1098.31 1098.36 1098.3 1098.44 1098.41 
1098.33 1098.12 1098.36 1098.48 1097.54 
1098.15 1098.5 1097.94 1098.48 1098.22 
1098.41 1098.48 1098.24 1098.24 1098.09 
1097.24 1098.35 1098.16 1098.49 1097.45 
1098.29 1098.27 1098.73 1098.08 1098.39 
1098.32 1098.21 1097.81 1098.53 1097.89 
1098.3 1098.47 1098.31 1099.36 1098.33 
1098.47 1098.37 1098.31 1098.33 1098.28 
1098.35 1098.24 1097.81 1098.37 1098.72 
1098.07 1098.13 1098.53 1098.19 1098.49 
1098.27 1098.48 1098.3 1098.34 1098.09 
1098.34 1098.33 1098.18 1098.33 1098.18 
1098.03 1098.4 1098.18 1098.44 1098.13 
1099.96 1098.46 1098.46 1098.91 1097.7 
1098.11 1098.16 1098.07 1098.68 1098.77 
1098.41 1097.94 1098.13 1098.2 1098.92 
1098.39 1098.33 1098.27 1098.36 1098.2 
1098 1098.43 1099.03 1098.52 1098.61 
1098.26 1098.28 1098.39 1099.16 1098.45 
1098.16 1098.7 1097.67 1098.26 1097.99 
1098.18 1098.2 1098.31 1098.42 1098.48 
1098.31 1098.25 1097.82 1098.67 1098.19 
1098.54 1098.07 1098.3 1098.38 1098.7 
1098.28 1098.37 1098.53 1098.83 1098.63 
1098.61 1097.89 1098.27 1098.38 1098.17 
1098.02 1098.71 1097.99 1097.84 1098.91 
1098.48 1098.1 1097.87 1098.19 1098.44 
1098.55 1098.22 1098.33 1098.19 1098.1 