
TITLE     = "DG2D to Tecplot"
VARIABLES = "X"
"Y"
"RHO"
"U"
"V"
"VELOCITY_MAG"
"P"
"T"
"THETA1"
"THETA2"
ZONE T="ZONE 1"
 STRANDID=0, SOLUTIONTIME=0
 Nodes=5151, Elements=10000, ZONETYPE=FEQuadrilateral
 DATAPACKING=BLOCK
 VARLOCATION=([3-10]=CELLCENTERED)
 DT=(SINGLE SINGLE SINGLE SINGLE SINGLE SINGLE SINGLE SINGLE SINGLE SINGLE
NODES=5151, ELEMENTS=10000
0 1.08304e-16 -0.02 -0.04 
-0.000314146 -0.000628215 -0.000942129 -0.00125581 -0.00156918 
-0.00188217 -0.00219469 -0.00250666 -0.00281802 -0.00312869 
-0.00343858 -0.00374763 -0.00405575 -0.00436286 -0.00466891 
-0.0049738 -0.00527746 -0.00557982 -0.00588081 -0.00618034 
-0.00647835 -0.00677476 -0.0070695 -0.00736249 -0.00765367 
-0.00794296 -0.00823029 -0.00851559 -0.00879878 -0.00907981 
-0.0093586 -0.00963507 -0.00990917 -0.0101808 -0.01045 
-0.0107165 -0.0109805 -0.0112417 -0.0115001 -0.0117557 
-0.0120084 -0.0122581 -0.0125049 -0.0127485 -0.012989 
-0.0132262 -0.0134603 -0.0136909 -0.0139183 -0.0141421 
-0.0143625 -0.0145794 -0.0147926 -0.0150022 -0.0152081 
-0.0154103 -0.0156086 -0.0158031 -0.0159937 -0.0161803 
-0.016363 -0.0165416 -0.0167161 -0.0168866 -0.0170528 
-0.0172148 -0.0173726 -0.0175261 -0.0176753 -0.0178201 
-0.0179606 -0.0180965 -0.0182281 -0.0183551 -0.0184776 
-0.0185955 -0.0187089 -0.0188176 -0.0189217 -0.0190211 
-0.0191159 -0.0192059 -0.0192911 -0.0193717 -0.0194474 
-0.0195183 -0.0195845 -0.0196457 -0.0197022 -0.0197538 
-0.0198005 -0.0198423 -0.0198792 -0.0199112 -0.0199383 
-0.0199605 -0.0199778 -0.0199901 -0.0199975 -0.000750703 
-0.00150091 -0.00225011 -0.00299783 -0.00374357 -0.00448685 
-0.00522722 -0.00596421 -0.00669738 -0.0074263 -0.00815057 
-0.00886979 -0.00958359 -0.0102916 -0.0109935 -0.011689 
-0.0123778 -0.0130596 -0.0137341 -0.0144011 -0.0150604 
-0.0157118 -0.0163551 -0.0169902 -0.0176169 -0.018235 
-0.0188445 -0.0194453 -0.0200372 -0.0206201 -0.0211942 
-0.0217591 -0.022315 -0.0228618 -0.0233995 -0.023928 
-0.0244473 -0.0249575 -0.0254585 -0.0259503 -0.026433 
-0.0269066 -0.0273711 -0.0278265 -0.0282728 -0.0287101 
-0.0291385 -0.0295578 -0.0299683 -0.0303699 -0.0307627 
-0.0311467 -0.0315219 -0.0318884 -0.0322463 -0.0325956 
-0.0329362 -0.0332684 -0.033592 -0.0339073 -0.0342141 
-0.0345126 -0.0348027 -0.0350846 -0.0353583 -0.0356238 
-0.0358811 -0.0361303 -0.0363714 -0.0366046 -0.0368297 
-0.0370468 -0.037256 -0.0374573 -0.0376508 -0.0378364 
-0.0380142 -0.0381843 -0.0383465 -0.0385011 -0.038648 
-0.0387871 -0.0389187 -0.0390426 -0.0391589 -0.0392676 
-0.0393687 -0.0394623 -0.0395483 -0.0396268 -0.0396978 
-0.0397613 -0.0398173 -0.0398658 -0.0399068 -0.0399404 
-0.0399665 -0.0399851 -0.0399963 -3.88578e-16 -3.88578e-16 
-3.88578e-16 -3.88578e-16 -3.88578e-16 -3.88578e-16 -3.88578e-16 
-3.88578e-16 -3.88578e-16 -3.88578e-16 -3.88578e-16 -3.88578e-16 
-3.88578e-16 -3.88578e-16 -3.88578e-16 -3.88578e-16 -3.88578e-16 
-3.88578e-16 -3.88578e-16 -3.88578e-16 -3.88578e-16 -3.88578e-16 
-3.88578e-16 -3.88578e-16 -3.88578e-16 -3.88578e-16 -3.88578e-16 
-3.88578e-16 -3.88578e-16 -3.88578e-16 -3.88578e-16 -3.88578e-16 
-3.88578e-16 -3.88578e-16 -3.88578e-16 -3.88578e-16 -3.88578e-16 
-3.88578e-16 -3.88578e-16 -3.88578e-16 -3.88578e-16 -3.88578e-16 
-3.88578e-16 -3.88578e-16 -3.88578e-16 -3.88578e-16 -3.88578e-16 
-3.88578e-16 -3.88578e-16 -0.0396 -0.0392 -0.0388 
-0.0384 -0.038 -0.0376 -0.0372 -0.0368 
-0.0364 -0.036 -0.0356 -0.0352 -0.0348 
-0.0344 -0.034 -0.0336 -0.0332 -0.0328 
-0.0324 -0.032 -0.0316 -0.0312 -0.0308 
-0.0304 -0.03 -0.0296 -0.0292 -0.0288 
-0.0284 -0.028 -0.0276 -0.0272 -0.0268 
-0.0264 -0.026 -0.0256 -0.0252 -0.0248 
-0.0244 -0.024 -0.0236 -0.0232 -0.0228 
-0.0224 -0.022 -0.0216 -0.0212 -0.0208 
-0.0204 -0.000322877 -0.000645669 -0.000968289 -0.00129065 
-0.00161267 -0.00193426 -0.00225534 -0.00257582 -0.00289561 
-0.00321464 -0.00353282 -0.00385007 -0.0041663 -0.00448144 
-0.0047954 -0.0051081 -0.00541947 -0.00572942 -0.00603787 
-0.00634475 -0.00664999 -0.0069535 -0.00725521 -0.00755505 
-0.00785293 -0.0081488 -0.00844257 -0.00873418 -0.00902355 
-0.00931062 -0.00959531 -0.00987755 -0.0101573 -0.0104344 
-0.010709 -0.0109808 -0.0112498 -0.011516 -0.0117793 
-0.0120396 -0.0122969 -0.0125511 -0.0128022 -0.01305 
-0.0132946 -0.0135359 -0.0137738 -0.0140083 -0.0142393 
-0.0144667 -0.0146905 -0.0149107 -0.0151272 -0.0153399 
-0.0155489 -0.015754 -0.0159552 -0.0161524 -0.0163457 
-0.0165349 -0.01672 -0.016901 -0.0170779 -0.0172505 
-0.0174189 -0.017583 -0.0177428 -0.0178982 -0.0180492 
-0.0181958 -0.0183379 -0.0184755 -0.0186086 -0.0187371 
-0.0188611 -0.0189803 -0.019095 -0.0192049 -0.0193102 
-0.0194107 -0.0195065 -0.0195975 -0.0196837 -0.0197651 
-0.0198416 -0.0199133 -0.0199801 -0.0200421 -0.0200991 
-0.0201512 -0.0201984 -0.0202407 -0.020278 -0.0203103 
-0.0203377 -0.0203601 -0.0203776 -0.02039 -0.0203975 
-0.000331609 -0.000663123 -0.000994448 -0.00132549 -0.00165616 
-0.00198635 -0.00231599 -0.00264497 -0.0029732 -0.00330059 
-0.00362706 -0.00395251 -0.00427686 -0.00460001 -0.00492189 
-0.00524241 -0.00556147 -0.00587901 -0.00619494 -0.00650917 
-0.00682163 -0.00713224 -0.00744092 -0.0077476 -0.0080522 
-0.00835464 -0.00865486 -0.00895277 -0.00924832 -0.00954142 
-0.00983202 -0.01012 -0.0104054 -0.0106881 -0.010968 
-0.011245 -0.0115191 -0.0117903 -0.0120584 -0.0123235 
-0.0125854 -0.0128441 -0.0130995 -0.0133516 -0.0136003 
-0.0138456 -0.0140874 -0.0143256 -0.0145603 -0.0147912 
-0.0150185 -0.0152421 -0.0154618 -0.0156777 -0.0158896 
-0.0160977 -0.0163017 -0.0165017 -0.0166976 -0.0168894 
-0.017077 -0.0172605 -0.0174396 -0.0176145 -0.017785 
-0.0179512 -0.018113 -0.0182703 -0.0184232 -0.0185715 
-0.0187153 -0.0188546 -0.0189892 -0.0191192 -0.0192445 
-0.0193652 -0.0194811 -0.0195923 -0.0196987 -0.0198003 
-0.0198971 -0.0199891 -0.0200762 -0.0201585 -0.0202359 
-0.0203083 -0.0203758 -0.0204384 -0.020496 -0.0205487 
-0.0205964 -0.0206391 -0.0206767 -0.0207094 -0.0207371 
-0.0207597 -0.0207773 -0.0207899 -0.0207975 -0.00034034 
-0.000680577 -0.00102061 -0.00136033 -0.00169965 -0.00203845 
-0.00237664 -0.00271412 -0.00305079 -0.00338655 -0.0037213 
-0.00405496 -0.00438742 -0.00471859 -0.00504838 -0.00537671 
-0.00570348 -0.00602861 -0.006352 -0.00667358 -0.00699327 
-0.00731098 -0.00762664 -0.00794015 -0.00825146 -0.00856048 
-0.00886714 -0.00917137 -0.00947309 -0.00977223 -0.0100687 
-0.0103625 -0.0106535 -0.0109417 -0.0112269 -0.0115092 
-0.0117885 -0.0120646 -0.0123376 -0.0126074 -0.0128739 
-0.013137 -0.0133968 -0.0136532 -0.013906 -0.0141553 
-0.0144009 -0.014643 -0.0148813 -0.0151158 -0.0153465 
-0.0155734 -0.0157964 -0.0160154 -0.0162304 -0.0164414 
-0.0166483 -0.016851 -0.0170496 -0.017244 -0.0174341 
-0.0176199 -0.0178013 -0.0179784 -0.0181511 -0.0183194 
-0.0184831 -0.0186424 -0.0187971 -0.0189472 -0.0190927 
-0.0192336 -0.0193697 -0.0195012 -0.019628 -0.01975 
-0.0198672 -0.0199796 -0.0200872 -0.0201899 -0.0202878 
-0.0203808 -0.0204688 -0.0205519 -0.0206301 -0.0207033 
-0.0207715 -0.0208347 -0.020893 -0.0209461 -0.0209943 
-0.0210374 -0.0210755 -0.0211085 -0.0211365 -0.0211593 
-0.0211771 -0.0211898 -0.0211975 -0.000349071 -0.00069803 
-0.00104677 -0.00139517 -0.00174313 -0.00209054 -0.00243729 
-0.00278327 -0.00312837 -0.0034725 -0.00381554 -0.0041574 
-0.00449797 -0.00483717 -0.00517488 -0.00551102 -0.00584549 
-0.0061782 -0.00650907 -0.006838 -0.00716491 -0.00748972 
-0.00781235 -0.00813271 -0.00845073 -0.00876632 -0.00907942 
-0.00938996 -0.00969785 -0.010003 -0.0103054 -0.010605 
-0.0109016 -0.0111953 -0.0114859 -0.0117735 -0.0120578 
-0.0123389 -0.0126168 -0.0128913 -0.0131624 -0.01343 
-0.0136942 -0.0139547 -0.0142117 -0.0144649 -0.0147145 
-0.0149603 -0.0152023 -0.0154404 -0.0156745 -0.0159048 
-0.016131 -0.0163531 -0.0165712 -0.0167851 -0.0169948 
-0.0172003 -0.0174016 -0.0175985 -0.0177911 -0.0179793 
-0.0181631 -0.0183424 -0.0185172 -0.0186876 -0.0188533 
-0.0190145 -0.019171 -0.0193229 -0.0194701 -0.0196126 
-0.0197503 -0.0198833 -0.0200114 -0.0201348 -0.0202533 
-0.0203669 -0.0204757 -0.0205795 -0.0206784 -0.0207724 
-0.0208614 -0.0209453 -0.0210243 -0.0210983 -0.0211672 
-0.0212311 -0.0212899 -0.0213436 -0.0213923 -0.0214358 
-0.0214743 -0.0215076 -0.0215358 -0.0215589 -0.0215769 
-0.0215897 -0.0215974 -0.000357802 -0.000715484 -0.00107293 
-0.00143001 -0.00178662 -0.00214264 -0.00249794 -0.00285242 
-0.00320596 -0.00355845 -0.00390978 -0.00425984 -0.00460853 
-0.00495574 -0.00530137 -0.00564532 -0.00598749 -0.0063278 
-0.00666613 -0.00700241 -0.00733655 -0.00766846 -0.00799806 
-0.00832526 -0.00864999 -0.00897216 -0.00929171 -0.00960855 
-0.00992262 -0.0102338 -0.0105422 -0.0108475 -0.0111498 
-0.0114489 -0.0117449 -0.0120377 -0.0123271 -0.0126132 
-0.0128959 -0.0131752 -0.0134509 -0.013723 -0.0139915 
-0.0142563 -0.0145173 -0.0147746 -0.0150281 -0.0152776 
-0.0155233 -0.0157649 -0.0160025 -0.0162361 -0.0164656 
-0.0166908 -0.0169119 -0.0171288 -0.0173414 -0.0175496 
-0.0177535 -0.017953 -0.0181481 -0.0183387 -0.0185248 
-0.0187064 -0.0188834 -0.0190557 -0.0192235 -0.0193866 
-0.0195449 -0.0196986 -0.0198475 -0.0199916 -0.0201309 
-0.0202653 -0.0203949 -0.0205196 -0.0206394 -0.0207543 
-0.0208642 -0.0209691 -0.0210691 -0.021164 -0.0212539 
-0.0213388 -0.0214185 -0.0214933 -0.0215629 -0.0216274 
-0.0216868 -0.0217411 -0.0217902 -0.0218342 -0.021873 
-0.0219067 -0.0219352 -0.0219585 -0.0219767 -0.0219896 
-0.0219974 -0.000366533 -0.000732938 -0.00109909 -0.00146485 
-0.00183011 -0.00219473 -0.00255859 -0.00292157 -0.00328355 
-0.0036444 -0.00400402 -0.00436229 -0.00471909 -0.00507432 
-0.00542786 -0.00577962 -0.0061295 -0.00647739 -0.0068232 
-0.00716683 -0.0075082 -0.00784721 -0.00818377 -0.00851782 
-0.00884925 -0.009178 -0.00950399 -0.00982715 -0.0101474 
-0.0104647 -0.0107789 -0.01109 -0.0113979 -0.0117025 
-0.0120039 -0.0123019 -0.0125965 -0.0128876 -0.0131751 
-0.0134591 -0.0137394 -0.014016 -0.0142888 -0.0145578 
-0.014823 -0.0150843 -0.0153416 -0.015595 -0.0158443 
-0.0160895 -0.0163305 -0.0165674 -0.0168001 -0.0170286 
-0.0172527 -0.0174725 -0.0176879 -0.0178989 -0.0181055 
-0.0183076 -0.0185051 -0.0186981 -0.0188865 -0.0190703 
-0.0192495 -0.0194239 -0.0195936 -0.0197586 -0.0199188 
-0.0200743 -0.0202248 -0.0203706 -0.0205114 -0.0206474 
-0.0207784 -0.0209044 -0.0210255 -0.0211416 -0.0212527 
-0.0213587 -0.0214597 -0.0215556 -0.0216465 -0.0217322 
-0.0218128 -0.0218882 -0.0219586 -0.0220237 -0.0220837 
-0.0221385 -0.0221882 -0.0222326 -0.0222718 -0.0223058 
-0.0223346 -0.0223581 -0.0223764 -0.0223895 -0.0223974 
-0.000375264 -0.000750392 -0.00112525 -0.00149969 -0.0018736 
-0.00224682 -0.00261924 -0.00299072 -0.00336113 -0.00373035 
-0.00409826 -0.00446473 -0.00482964 -0.00519289 -0.00555435 
-0.00591393 -0.00627151 -0.00662698 -0.00698026 -0.00733124 
-0.00767984 -0.00802595 -0.00836949 -0.00871037 -0.00904852 
-0.00938385 -0.00971628 -0.0100457 -0.0103722 -0.0106955 
-0.0110156 -0.0113324 -0.011646 -0.0119562 -0.0122629 
-0.0125661 -0.0128658 -0.0131619 -0.0134543 -0.013743 
-0.0140279 -0.0143089 -0.0145861 -0.0148594 -0.0151287 
-0.015394 -0.0156552 -0.0159123 -0.0161653 -0.016414 
-0.0166585 -0.0168988 -0.0171347 -0.0173663 -0.0175935 
-0.0178162 -0.0180345 -0.0182482 -0.0184575 -0.0186621 
-0.0188621 -0.0190575 -0.0192483 -0.0194343 -0.0196156 
-0.0197921 -0.0199638 -0.0201307 -0.0202928 -0.02045 
-0.0206022 -0.0207496 -0.020892 -0.0210294 -0.0211618 
-0.0212893 -0.0214116 -0.0215289 -0.0216412 -0.0217483 
-0.0218504 -0.0219473 -0.022039 -0.0221256 -0.022207 
-0.0222832 -0.0223543 -0.0224201 -0.0224806 -0.022536 
-0.0225861 -0.022631 -0.0226705 -0.0227049 -0.0227339 
-0.0227577 -0.0227762 -0.0227894 -0.0227974 -0.000383995 
-0.000767846 -0.00115141 -0.00153453 -0.00191708 -0.00229892 
-0.00267989 -0.00305987 -0.00343872 -0.00381631 -0.0041925 
-0.00456717 -0.0049402 -0.00531147 -0.00568085 -0.00604823 
-0.00641351 -0.00677658 -0.00713733 -0.00749566 -0.00785148 
-0.00820469 -0.0085552 -0.00890293 -0.00924778 -0.00958969 
-0.00992856 -0.0102643 -0.0105969 -0.0109263 -0.0112523 
-0.0115749 -0.0118941 -0.0122098 -0.0125219 -0.0128304 
-0.0131352 -0.0134362 -0.0137334 -0.0140268 -0.0143163 
-0.0146019 -0.0148834 -0.015161 -0.0154344 -0.0157037 
-0.0159688 -0.0162296 -0.0164863 -0.0167386 -0.0169866 
-0.0172301 -0.0174693 -0.017704 -0.0179342 -0.0181599 
-0.018381 -0.0185975 -0.0188094 -0.0190166 -0.0192192 
-0.019417 -0.01961 -0.0197982 -0.0199817 -0.0201603 
-0.020334 -0.0205028 -0.0206667 -0.0208256 -0.0209796 
-0.0211286 -0.0212725 -0.0214115 -0.0215453 -0.0216741 
-0.0217977 -0.0219163 -0.0220297 -0.0221379 -0.022241 
-0.0223389 -0.0224316 -0.022519 -0.0226012 -0.0226782 
-0.0227499 -0.0228164 -0.0228776 -0.0229335 -0.022984 
-0.0230293 -0.0230693 -0.023104 -0.0231333 -0.0231573 
-0.023176 -0.0231893 -0.0231973 -0.000392726 -0.000785299 
-0.00117757 -0.00156937 -0.00196057 -0.00235101 -0.00274054 
-0.00312902 -0.00351631 -0.00390226 -0.00428674 -0.00466962 
-0.00505076 -0.00543004 -0.00580734 -0.00618254 -0.00655552 
-0.00692617 -0.00729439 -0.00766007 -0.00802312 -0.00838343 
-0.00874091 -0.00909548 -0.00944705 -0.00979553 -0.0101408 
-0.0104829 -0.0108217 -0.0111571 -0.011489 -0.0118174 
-0.0121422 -0.0124634 -0.0127809 -0.0130946 -0.0134045 
-0.0137105 -0.0140126 -0.0143107 -0.0146048 -0.0148949 
-0.0151808 -0.0154625 -0.0157401 -0.0160133 -0.0162823 
-0.016547 -0.0168073 -0.0170631 -0.0173146 -0.0175615 
-0.0178039 -0.0180417 -0.018275 -0.0185036 -0.0187276 
-0.0189469 -0.0191614 -0.0193712 -0.0195762 -0.0197764 
-0.0199717 -0.0201622 -0.0203478 -0.0205284 -0.0207042 
-0.0208749 -0.0210406 -0.0212013 -0.021357 -0.0215076 
-0.0216531 -0.0217935 -0.0219288 -0.0220589 -0.0221838 
-0.0223036 -0.0224182 -0.0225275 -0.0226316 -0.0227305 
-0.0228241 -0.0229124 -0.0229955 -0.0230732 -0.0231456 
-0.0232127 -0.0232745 -0.0233309 -0.023382 -0.0234277 
-0.0234681 -0.0235031 -0.0235327 -0.0235569 -0.0235758 
-0.0235892 -0.0235973 -0.000401458 -0.000802753 -0.00120373 
-0.00160421 -0.00200406 -0.0024031 -0.00280119 -0.00319817 
-0.00359389 -0.00398821 -0.00438098 -0.00477206 -0.00516132 
-0.00554862 -0.00593383 -0.00631684 -0.00669753 -0.00707577 
-0.00745146 -0.00782449 -0.00819476 -0.00856217 -0.00892662 
-0.00928803 -0.00964631 -0.0100014 -0.0103531 -0.0107015 
-0.0110465 -0.0113879 -0.0117257 -0.0120599 -0.0123903 
-0.012717 -0.0130399 -0.0133588 -0.0136738 -0.0139848 
-0.0142918 -0.0145946 -0.0148933 -0.0151878 -0.0154781 
-0.0157641 -0.0160457 -0.016323 -0.0165959 -0.0168643 
-0.0171283 -0.0173877 -0.0176426 -0.0178928 -0.0181385 
-0.0183795 -0.0186158 -0.0188473 -0.0190741 -0.0192962 
-0.0195134 -0.0197257 -0.0199332 -0.0201358 -0.0203335 
-0.0205262 -0.0207139 -0.0208966 -0.0210743 -0.021247 
-0.0214145 -0.021577 -0.0217344 -0.0218866 -0.0220337 
-0.0221755 -0.0223122 -0.0224437 -0.0225699 -0.0226909 
-0.0228067 -0.0229171 -0.0230223 -0.0231221 -0.0232167 
-0.0233058 -0.0233897 -0.0234682 -0.0235413 -0.0236091 
-0.0236714 -0.0237284 -0.0237799 -0.0238261 -0.0238668 
-0.0239021 -0.023932 -0.0239565 -0.0239755 -0.0239891 
-0.0239973 -0.000410189 -0.000820207 -0.00122989 -0.00163905 
-0.00204755 -0.0024552 -0.00286184 -0.00326732 -0.00367148 
-0.00407416 -0.00447522 -0.0048745 -0.00527187 -0.00566719 
-0.00606032 -0.00645115 -0.00683953 -0.00722536 -0.00760852 
-0.00798891 -0.0083664 -0.00874091 -0.00911234 -0.00948059 
-0.00984557 -0.0102072 -0.0105654 -0.0109201 -0.0112712 
-0.0116187 -0.0119624 -0.0123024 -0.0126385 -0.0129706 
-0.0132989 -0.0136231 -0.0139432 -0.0142591 -0.0145709 
-0.0148785 -0.0151818 -0.0154808 -0.0157754 -0.0160656 
-0.0163514 -0.0166327 -0.0169095 -0.0171817 -0.0174493 
-0.0177122 -0.0179706 -0.0182242 -0.0184731 -0.0187172 
-0.0189565 -0.019191 -0.0194207 -0.0196455 -0.0198653 
-0.0200803 -0.0202902 -0.0204952 -0.0206952 -0.0208901 
-0.02108 -0.0212648 -0.0214445 -0.0216191 -0.0217885 
-0.0219527 -0.0221118 -0.0222656 -0.0224142 -0.0225576 
-0.0226957 -0.0228285 -0.0229561 -0.0230783 -0.0231952 
-0.0233067 -0.0234129 -0.0235138 -0.0236092 -0.0236993 
-0.0237839 -0.0238632 -0.023937 -0.0240054 -0.0240683 
-0.0241258 -0.0241779 -0.0242245 -0.0242656 -0.0243012 
-0.0243314 -0.0243561 -0.0243753 -0.024389 -0.0243973 
-0.00041892 -0.000837661 -0.00125604 -0.00167389 -0.00209103 
-0.00250729 -0.00292249 -0.00333647 -0.00374907 -0.00416012 
-0.00456946 -0.00497695 -0.00538243 -0.00578577 -0.00618682 
-0.00658545 -0.00698154 -0.00737496 -0.00776559 -0.00815332 
-0.00853804 -0.00891965 -0.00929805 -0.00967314 -0.0100448 
-0.0104131 -0.0107777 -0.0111387 -0.011496 -0.0118495 
-0.0121991 -0.0125448 -0.0128866 -0.0132243 -0.0135579 
-0.0138873 -0.0142125 -0.0145335 -0.0148501 -0.0151624 
-0.0154703 -0.0157738 -0.0160727 -0.0163672 -0.0166571 
-0.0169424 -0.017223 -0.017499 -0.0177703 -0.0180368 
-0.0182986 -0.0185555 -0.0188077 -0.0190549 -0.0192973 
-0.0195347 -0.0197672 -0.0199948 -0.0202173 -0.0204348 
-0.0206473 -0.0208546 -0.0210569 -0.0212541 -0.0214461 
-0.021633 -0.0218147 -0.0219911 -0.0221624 -0.0223284 
-0.0224891 -0.0226446 -0.0227948 -0.0229396 -0.0230792 
-0.0232133 -0.0233422 -0.0234656 -0.0235837 -0.0236963 
-0.0238036 -0.0239054 -0.0240018 -0.0240927 -0.0241782 
-0.0242582 -0.0243327 -0.0244017 -0.0244653 -0.0245233 
-0.0245758 -0.0246228 -0.0246643 -0.0247003 -0.0247308 
-0.0247557 -0.0247751 -0.0247889 -0.0247972 -0.000427651 
-0.000855115 -0.0012822 -0.00170874 -0.00213452 -0.00255939 
-0.00298314 -0.00340563 -0.00382666 -0.00424607 -0.0046637 
-0.00507939 -0.00549299 -0.00590434 -0.00631331 -0.00671976 
-0.00712355 -0.00752455 -0.00792265 -0.00831774 -0.00870968 
-0.00909839 -0.00948376 -0.0098657 -0.0102441 -0.0106189 
-0.01099 -0.0113573 -0.0117208 -0.0120803 -0.0124358 
-0.0127873 -0.0131347 -0.0134779 -0.0138168 -0.0141515 
-0.0144818 -0.0148078 -0.0151293 -0.0154463 -0.0157588 
-0.0160667 -0.0163701 -0.0166688 -0.0169628 -0.017252 
-0.0175366 -0.0178163 -0.0180913 -0.0183614 -0.0186266 
-0.0188869 -0.0191422 -0.0193926 -0.019638 -0.0198784 
-0.0201138 -0.0203441 -0.0205693 -0.0207893 -0.0210043 
-0.0212141 -0.0214187 -0.0216181 -0.0218122 -0.0220012 
-0.0221848 -0.0223632 -0.0225363 -0.0227041 -0.0228665 
-0.0230236 -0.0231753 -0.0233217 -0.0234626 -0.0235982 
-0.0237283 -0.0238529 -0.0239722 -0.0240859 -0.0241942 
-0.024297 -0.0243943 -0.0244861 -0.0245724 -0.0246531 
-0.0247284 -0.024798 -0.0248622 -0.0249208 -0.0249738 
-0.0250212 -0.0250631 -0.0250994 -0.0251301 -0.0251553 
-0.0251748 -0.0251888 -0.0251972 -0.000436382 -0.000872569 
-0.00130836 -0.00174358 -0.00217801 -0.00261148 -0.0030438 
-0.00347478 -0.00390424 -0.00433202 -0.00475794 -0.00518183 
-0.00560354 -0.00602292 -0.0064398 -0.00685406 -0.00726555 
-0.00767415 -0.00807972 -0.00848215 -0.00888132 -0.00927713 
-0.00966948 -0.0100583 -0.0104434 -0.0108247 -0.0112023 
-0.0115759 -0.0119455 -0.0123111 -0.0126726 -0.0130298 
-0.0133828 -0.0137315 -0.0140758 -0.0144157 -0.0147512 
-0.0150821 -0.0154085 -0.0157302 -0.0160473 -0.0163597 
-0.0166674 -0.0169703 -0.0172684 -0.0175617 -0.0178501 
-0.0181337 -0.0184123 -0.0186859 -0.0189546 -0.0192182 
-0.0194768 -0.0197304 -0.0199788 -0.0202221 -0.0204603 
-0.0206934 -0.0209212 -0.0211439 -0.0213613 -0.0215735 
-0.0217804 -0.021982 -0.0221783 -0.0223693 -0.022555 
-0.0227353 -0.0229102 -0.0230798 -0.0232439 -0.0234026 
-0.0235559 -0.0237037 -0.0238461 -0.023983 -0.0241144 
-0.0242403 -0.0243607 -0.0244755 -0.0245848 -0.0246886 
-0.0247869 -0.0248795 -0.0249666 -0.0250481 -0.025124 
-0.0251944 -0.0252591 -0.0253182 -0.0253717 -0.0254196 
-0.0254619 -0.0254985 -0.0255295 -0.0255549 -0.0255746 
-0.0255887 -0.0255972 -0.000445113 -0.000890022 -0.00133452 
-0.00177842 -0.0022215 -0.00266357 -0.00310445 -0.00354393 
-0.00398183 -0.00441797 -0.00485218 -0.00528428 -0.0057141 
-0.00614149 -0.0065663 -0.00698836 -0.00740756 -0.00782374 
-0.00823678 -0.00864657 -0.00905297 -0.00945588 -0.00985519 
-0.0102508 -0.0106426 -0.0110306 -0.0114146 -0.0117945 
-0.0121703 -0.0125419 -0.0129093 -0.0132723 -0.0136309 
-0.0139851 -0.0143348 -0.01468 -0.0150205 -0.0153564 
-0.0156876 -0.0160141 -0.0163358 -0.0166527 -0.0169647 
-0.0172719 -0.0175741 -0.0178714 -0.0181637 -0.018451 
-0.0187333 -0.0190105 -0.0192826 -0.0195496 -0.0198114 
-0.0200681 -0.0203196 -0.0205659 -0.0208069 -0.0210427 
-0.0212732 -0.0214984 -0.0217183 -0.0219329 -0.0221421 
-0.022346 -0.0225444 -0.0227375 -0.0229252 -0.0231074 
-0.0232842 -0.0234555 -0.0236213 -0.0237816 -0.0239365 
-0.0240858 -0.0242296 -0.0243678 -0.0245005 -0.0246276 
-0.0247492 -0.0248651 -0.0249755 -0.0250803 -0.0251794 
-0.0252729 -0.0253608 -0.0254431 -0.0255197 -0.0255907 
-0.025656 -0.0257157 -0.0257697 -0.025818 -0.0258606 
-0.0258976 -0.0259289 -0.0259545 -0.0259744 -0.0259886 
-0.0259972 -0.000453844 -0.000907476 -0.00136068 -0.00181326 
-0.00226499 -0.00271567 -0.0031651 -0.00361308 -0.00405942 
-0.00450392 -0.00494642 -0.00538672 -0.00582466 -0.00626007 
-0.00669279 -0.00712267 -0.00754957 -0.00797334 -0.00839385 
-0.00881098 -0.00922461 -0.00963462 -0.0100409 -0.0104434 
-0.0108419 -0.0112364 -0.0116268 -0.0120131 -0.0123951 
-0.0127727 -0.013146 -0.0135148 -0.013879 -0.0142387 
-0.0145938 -0.0149442 -0.0152899 -0.0156307 -0.0159668 
-0.016298 -0.0166243 -0.0169456 -0.017262 -0.0175734 
-0.0178798 -0.0181811 -0.0184773 -0.0187684 -0.0190543 
-0.019335 -0.0196106 -0.0198809 -0.020146 -0.0204058 
-0.0206603 -0.0209096 -0.0211534 -0.021392 -0.0216252 
-0.021853 -0.0220753 -0.0222923 -0.0225039 -0.0227099 
-0.0229106 -0.0231057 -0.0232953 -0.0234795 -0.0236581 
-0.0238311 -0.0239987 -0.0241606 -0.024317 -0.0244678 
-0.024613 -0.0247526 -0.0248866 -0.0250149 -0.0251377 
-0.0252547 -0.0253661 -0.0254719 -0.025572 -0.0256664 
-0.0257551 -0.0258381 -0.0259154 -0.025987 -0.0260529 
-0.0261131 -0.0261676 -0.0262164 -0.0262594 -0.0262967 
-0.0263283 -0.0263541 -0.0263742 -0.0263885 -0.0263971 
-0.000462575 -0.00092493 -0.00138684 -0.0018481 -0.00230847 
-0.00276776 -0.00322575 -0.00368223 -0.004137 -0.00458988 
-0.00504066 -0.00548916 -0.00593521 -0.00637864 -0.00681928 
-0.00725697 -0.00769157 -0.00812293 -0.00855092 -0.0089754 
-0.00939625 -0.00981336 -0.0102266 -0.0106359 -0.0110412 
-0.0114423 -0.0118391 -0.0122317 -0.0126198 -0.0130035 
-0.0133827 -0.0137573 -0.0141272 -0.0144924 -0.0148528 
-0.0152084 -0.0155592 -0.015905 -0.016246 -0.0165819 
-0.0169128 -0.0172386 -0.0175594 -0.017875 -0.0181855 
-0.0184908 -0.0187908 -0.0190857 -0.0193753 -0.0196596 
-0.0199386 -0.0202123 -0.0204806 -0.0207435 -0.0210011 
-0.0212533 -0.0215 -0.0217413 -0.0219771 -0.0222075 
-0.0224324 -0.0226517 -0.0228656 -0.0230739 -0.0232767 
-0.0234739 -0.0236655 -0.0238516 -0.024032 -0.0242068 
-0.0243761 -0.0245396 -0.0246976 -0.0248499 -0.0249965 
-0.0251374 -0.0252727 -0.0254023 -0.0255261 -0.0256443 
-0.0257568 -0.0258635 -0.0259645 -0.0260598 -0.0261493 
-0.0262331 -0.0263111 -0.0263834 -0.0264499 -0.0265106 
-0.0265656 -0.0266147 -0.0266582 -0.0266958 -0.0267276 
-0.0267537 -0.0267739 -0.0267884 -0.0267971 -0.000471307 
-0.000942384 -0.001413 -0.00188294 -0.00235196 -0.00281985 
-0.0032864 -0.00375138 -0.00421459 -0.00467583 -0.0051349 
-0.00559161 -0.00604577 -0.00649722 -0.00694577 -0.00739128 
-0.00783358 -0.00827253 -0.00870798 -0.00913981 -0.00956789 
-0.0099921 -0.0104123 -0.0108285 -0.0112404 -0.0116481 
-0.0120514 -0.0124503 -0.0128446 -0.0132343 -0.0136194 
-0.0139997 -0.0143753 -0.014746 -0.0151118 -0.0154727 
-0.0158285 -0.0161794 -0.0165251 -0.0168658 -0.0172013 
-0.0175316 -0.0178567 -0.0181766 -0.0184911 -0.0188004 
-0.0191044 -0.019403 -0.0196963 -0.0199841 -0.0202666 
-0.0205436 -0.0208152 -0.0210813 -0.0213419 -0.021597 
-0.0218466 -0.0220906 -0.0223291 -0.022562 -0.0227894 
-0.0230112 -0.0232273 -0.0234379 -0.0236428 -0.0238421 
-0.0240357 -0.0242236 -0.0244059 -0.0245825 -0.0247534 
-0.0249186 -0.0250781 -0.0252319 -0.0253799 -0.0255222 
-0.0256588 -0.0257896 -0.0259146 -0.0260339 -0.0261474 
-0.0262551 -0.0263571 -0.0264532 -0.0265435 -0.0266281 
-0.0267068 -0.0267797 -0.0268468 -0.0269081 -0.0269635 
-0.0270131 -0.0270569 -0.0270949 -0.027127 -0.0271533 
-0.0271737 -0.0271883 -0.0271971 -0.000480038 -0.000959838 
-0.00143916 -0.00191778 -0.00239545 -0.00287195 -0.00334705 
-0.00382053 -0.00429218 -0.00476178 -0.00522914 -0.00569405 
-0.00615633 -0.00661579 -0.00707227 -0.00752558 -0.00797558 
-0.00842212 -0.00886505 -0.00930423 -0.00973953 -0.0101708 
-0.010598 -0.011021 -0.0114397 -0.0118539 -0.0122637 
-0.0126689 -0.0130694 -0.0134651 -0.0138561 -0.0142422 
-0.0146234 -0.0149996 -0.0153708 -0.0157369 -0.0160979 
-0.0164537 -0.0168043 -0.0171497 -0.0174898 -0.0178246 
-0.018154 -0.0184781 -0.0187968 -0.0191101 -0.019418 
-0.0197204 -0.0200173 -0.0203087 -0.0205946 -0.0208749 
-0.0211497 -0.021419 -0.0216826 -0.0219407 -0.0221931 
-0.0224399 -0.0226811 -0.0229166 -0.0231464 -0.0233706 
-0.0235891 -0.0238018 -0.0240089 -0.0242102 -0.0244058 
-0.0245957 -0.0247798 -0.0249582 -0.0251308 -0.0252976 
-0.0254587 -0.0256139 -0.0257634 -0.0259071 -0.0260449 
-0.0261769 -0.0263031 -0.0264235 -0.0265381 -0.0266468 
-0.0267496 -0.0268466 -0.0269378 -0.027023 -0.0271025 
-0.027176 -0.0272437 -0.0273055 -0.0273615 -0.0274115 
-0.0274557 -0.027494 -0.0275264 -0.0275529 -0.0275735 
-0.0275882 -0.0275971 -0.000488769 -0.000977291 -0.00146532 
-0.00195262 -0.00243894 -0.00292404 -0.0034077 -0.00388968 
-0.00436977 -0.00484773 -0.00532338 -0.00579649 -0.00626688 
-0.00673437 -0.00719876 -0.00765989 -0.00811759 -0.00857171 
-0.00902211 -0.00946864 -0.00991117 -0.0103496 -0.0107838 
-0.0112136 -0.011639 -0.0120598 -0.012476 -0.0128875 
-0.0132941 -0.0136959 -0.0140928 -0.0144847 -0.0148715 
-0.0152532 -0.0156298 -0.0160011 -0.0163672 -0.016728 
-0.0170835 -0.0174336 -0.0177783 -0.0181175 -0.0184513 
-0.0187797 -0.0191025 -0.0194198 -0.0197315 -0.0200377 
-0.0203383 -0.0206333 -0.0209226 -0.0212063 -0.0214843 
-0.0217567 -0.0220234 -0.0222844 -0.0225397 -0.0227892 
-0.023033 -0.0232711 -0.0235034 -0.02373 -0.0239508 
-0.0241658 -0.024375 -0.0245784 -0.024776 -0.0249678 
-0.0251538 -0.0253339 -0.0255082 -0.0256766 -0.0258392 
-0.025996 -0.0261469 -0.0262919 -0.026431 -0.0265643 
-0.0266916 -0.0268131 -0.0269287 -0.0270384 -0.0271422 
-0.02724 -0.027332 -0.027418 -0.0274982 -0.0275724 
-0.0276406 -0.027703 -0.0277594 -0.0278099 -0.0278544 
-0.0278931 -0.0279257 -0.0279525 -0.0279733 -0.0279881 
-0.027997 -0.0004975 -0.000994745 -0.00149148 -0.00198746 
-0.00248242 -0.00297614 -0.00346835 -0.00395883 -0.00444735 
-0.00493369 -0.00541762 -0.00589894 -0.00637744 -0.00685294 
-0.00732525 -0.00779419 -0.0082596 -0.00872131 -0.00917918 
-0.00963306 -0.0100828 -0.0105283 -0.0109695 -0.0114061 
-0.0118382 -0.0122656 -0.0126883 -0.013106 -0.0135189 
-0.0139268 -0.0143295 -0.0147272 -0.0151196 -0.0155068 
-0.0158888 -0.0162653 -0.0166365 -0.0170023 -0.0173626 
-0.0177174 -0.0180667 -0.0184105 -0.0187487 -0.0190812 
-0.0194082 -0.0197295 -0.0200451 -0.020355 -0.0206593 
-0.0209578 -0.0212506 -0.0215376 -0.0218189 -0.0220944 
-0.0223642 -0.0226281 -0.0228862 -0.0231385 -0.023385 
-0.0236257 -0.0238605 -0.0240894 -0.0243125 -0.0245297 
-0.0247411 -0.0249466 -0.0251462 -0.0253399 -0.0255277 
-0.0257096 -0.0258856 -0.0260557 -0.0262198 -0.026378 
-0.0265303 -0.0266767 -0.0268171 -0.0269516 -0.0270801 
-0.0272027 -0.0273193 -0.02743 -0.0275347 -0.0276335 
-0.0277262 -0.027813 -0.0278938 -0.0279687 -0.0280376 
-0.0281004 -0.0281573 -0.0282083 -0.0282532 -0.0282921 
-0.0283251 -0.0283521 -0.028373 -0.028388 -0.028397 
-0.000506231 -0.0010122 -0.00151764 -0.0020223 -0.00252591 
-0.00302823 -0.003529 -0.00402798 -0.00452494 -0.00501964 
-0.00551186 -0.00600138 -0.006488 -0.00697152 -0.00745174 
-0.0079285 -0.0084016 -0.0088709 -0.00933624 -0.00979747 
-0.0102545 -0.0107071 -0.0111552 -0.0115987 -0.0120375 
-0.0124715 -0.0129005 -0.0133246 -0.0137437 -0.0141576 
-0.0145662 -0.0149697 -0.0153678 -0.0157605 -0.0161478 
-0.0165296 -0.0169059 -0.0172766 -0.0176418 -0.0180013 
-0.0183552 -0.0187035 -0.019046 -0.0193828 -0.0197139 
-0.0200391 -0.0203587 -0.0206724 -0.0209803 -0.0212824 
-0.0215786 -0.021869 -0.0221535 -0.0224322 -0.0227049 
-0.0229718 -0.0232328 -0.0234878 -0.023737 -0.0239802 
-0.0242175 -0.0244488 -0.0246742 -0.0248937 -0.0251072 
-0.0253148 -0.0255164 -0.025712 -0.0259016 -0.0260853 
-0.026263 -0.0264347 -0.0266004 -0.0267601 -0.0269138 
-0.0270615 -0.0272032 -0.0273389 -0.0274686 -0.0275923 
-0.02771 -0.0278216 -0.0279273 -0.0280269 -0.0281204 
-0.028208 -0.0282895 -0.028365 -0.0284345 -0.0284979 
-0.0285553 -0.0286066 -0.028652 -0.0286912 -0.0287245 
-0.0287517 -0.0287728 -0.0287879 -0.028797 -0.000514962 
-0.00102965 -0.0015438 -0.00205714 -0.0025694 -0.00308032 
-0.00358965 -0.00409713 -0.00460253 -0.00510559 -0.0056061 
-0.00610382 -0.00659856 -0.00709009 -0.00757824 -0.0080628 
-0.00854361 -0.0090205 -0.00949331 -0.00996189 -0.0104261 
-0.0108858 -0.0113409 -0.0117912 -0.0122367 -0.0126773 
-0.0131128 -0.0135432 -0.0139684 -0.0143884 -0.014803 
-0.0152121 -0.0156159 -0.0160141 -0.0164067 -0.0167938 
-0.0171752 -0.0175509 -0.017921 -0.0182852 -0.0186437 
-0.0189964 -0.0193433 -0.0196844 -0.0200195 -0.0203488 
-0.0206722 -0.0209897 -0.0213013 -0.0216069 -0.0219066 
-0.0222003 -0.0224881 -0.0227699 -0.0230457 -0.0233155 
-0.0235793 -0.0238371 -0.0240889 -0.0243347 -0.0245745 
-0.0248083 -0.025036 -0.0252577 -0.0254733 -0.0256829 
-0.0258865 -0.0260841 -0.0262755 -0.026461 -0.0266403 
-0.0268137 -0.0269809 -0.0271421 -0.0272973 -0.0274463 
-0.0275893 -0.0277263 -0.0278571 -0.0279819 -0.0281006 
-0.0282133 -0.0283198 -0.0284203 -0.0285147 -0.028603 
-0.0286852 -0.0287614 -0.0288314 -0.0288954 -0.0289532 