
TITLE     = "DG2D to Tecplot"
VARIABLES = "X"
"Y"
"RHO"
"U"
"V"
"VELOCITY_MAG"
"P"
"T"
"THETA1"
"THETA2"
ZONE T="ZONE 1"
STRANDID=0
ZONETYPE=FEQuadrilateral
DATAPACKING=BLOCK
VARLOCATION=([3-10]=CELLCENTERED)
DT=(SINGLE SINGLE SINGLE SINGLE SINGLE SINGLE SINGLE SINGLE SINGLE SINGLE)

Nodes=548, Elements=1006
0.05 0.05 -3.88578e-16 -3.88578e-16 
0.14 0.14 -3.88578e-16 -3.88578e-16 -3.88578e-16 
-3.88578e-16 -3.88578e-16 -3.88578e-16 -3.88578e-16 -3.88578e-16 
-3.88578e-16 -3.88578e-16 -3.88578e-16 -3.88578e-16 -3.88578e-16 
-3.88578e-16 -3.88578e-16 0.045 0.04 0.035 
0.03 0.025 0.02 0.015 0.01 
0.005 0.05 0.05 0.05 0.05 
0.05 0.05 0.05 0.05 0.05 
0.05 0.05 0.05 0.05 0.05 
0.05 0.005 0.01 0.015 0.02 
0.025 0.03 0.035 0.04 0.045 
0.135 0.13 0.125 0.12 0.115 
0.11 0.105 0.1 0.095 0.09 
0.085 0.08 0.075 0.07 0.065 
0.06 0.055 0.14 0.14 0.14 
0.14 0.14 0.14 0.14 0.14 
0.14 0.14 0.14 0.14 0.14 
0.14 0.14 0.055 0.06 0.065 
0.07 0.075 0.08 0.085 0.09 
0.095 0.1 0.105 0.11 0.115 
0.12 0.125 0.13 0.135 0.00441872 
0.00441736 0.004436 0.00447963 0.00443661 0.00442809 
0.00446324 0.0431093 0.0326026 0.0225849 0.012701 
0.0456369 0.0455014 0.0454191 0.0454932 0.0455855 
0.045728 0.0455948 0.00686385 0.0173913 0.0275096 
0.0374057 0.00459018 0.00438888 0.00447111 0.00446296 
0.00440999 0.00444058 0.0041588 0.0275527 0.0378107 
0.0176153 0.00824326 0.0454589 0.0454265 0.04545 
0.0455365 0.045657 0.0457159 0.0458195 0.0121629 
0.0224825 0.0324913 0.0418324 0.00884743 0.0407955 
0.00896493 0.00883337 0.00884395 0.0202569 0.0089191 
0.00960327 0.00913755 0.0409532 0.00891496 0.0299881 
0.0251115 0.0351123 0.0407922 0.0406239 0.00869536 
0.0152134 0.040863 0.0411027 0.0413788 0.0414018 
0.0147973 0.0250314 0.035068 0.00897282 0.00884337 
0.00878903 0.00894468 0.0408949 0.0412111 0.0411742 
0.0410198 0.0415391 0.0199257 0.0300758 0.0181923 
0.0375368 0.0321532 0.0131811 0.0134605 0.0361954 
0.01281 0.0365476 0.0132023 0.0138665 0.0276681 
0.0224389 0.0368659 0.0372007 0.01732 0.0364307 
0.0130739 0.0369863 0.013514 0.0134359 0.0360531 
0.0135036 0.0133544 0.0133615 0.0364685 0.0366656 
0.0228464 0.0274905 0.0372549 0.0363487 0.0327417 
0.0127553 0.0325643 0.0180184 0.0177933 0.0339523 
0.0318517 0.0170449 0.0179754 0.030792 0.0332087 
0.0195711 0.0181048 0.0320417 0.0316947 0.0164669 
0.0181104 0.0313771 0.0180654 0.0173838 0.0319544 
0.0321959 0.0248135 0.0206575 0.0253095 0.0174691 
0.029892 0.0221651 0.0214055 0.0273201 0.0228112 
0.0263727 0.0271974 0.0269534 0.0226528 0.0227146 
0.0276684 0.0225027 0.0274642 0.0228787 0.0284579 
0.027379 0.0227541 0.0541483 0.054455 0.0544357 
0.0544198 0.0543809 0.0543673 0.0543567 0.0543501 
0.0543497 0.0543572 0.0543884 0.0544802 0.0546144 
0.0542672 0.0534098 0.133037 0.122575 0.112549 
0.102561 0.0925489 0.0826102 0.0726712 0.0625365 
0.057671 0.135875 0.135809 0.135651 0.135618 
0.135581 0.135408 0.135325 0.0568516 0.0673419 
0.07744 0.0874743 0.0975143 0.107513 0.117415 
0.126932 0.131627 0.107566 0.127754 0.11752 
0.0975524 0.0875651 0.077664 0.0676187 0.135623 
0.135945 0.135709 0.135614 0.135497 0.13535 
0.135691 0.0621381 0.0724076 0.0824555 0.0924955 
0.102523 0.11248 0.122242 0.0900736 0.0588264 
0.0589122 0.058766 0.0587489 0.0587265 0.0587067 
0.058704 0.0587099 0.0587266 0.0587989 0.0590518 
0.0596068 0.125008 0.095086 0.105152 0.130493 
0.131338 0.0802277 0.115121 0.0704073 0.130889 
0.131483 0.0851154 0.131225 0.131239 0.13172 
0.131219 0.119963 0.0591113 0.13068 0.0698001 
0.110174 0.0798781 0.0899655 0.100058 0.110037 
0.119878 0.075371 0.132083 0.100117 0.131105 
0.0652927 0.131244 0.130709 0.0647365 0.0849132 
0.0748443 0.0950184 0.105071 0.114964 0.124499 
0.128582 0.122093 0.0630798 0.0631493 0.063128 
0.0630706 0.0630644 0.0630797 0.0630909 0.0630964 
0.063189 0.0637306 0.092579 0.11746 0.127108 
0.112589 0.126825 0.112912 0.107676 0.082599 
0.0722022 0.126137 0.068421 0.127289 0.126817 
0.117795 0.125898 0.126773 0.0822879 0.102721 
0.0924919 0.102661 0.0672228 0.126001 0.126534 
0.0976452 0.126867 0.0731853 0.126866 0.122837 
0.0875439 0.107828 0.0638334 0.0772251 0.0627122 
0.0873865 0.0975919 0.12775 0.077822 0.0676322 
0.0674369 0.0674204 0.0674561 0.0675016 0.0675031 
0.0674343 0.0674297 0.122561 0.0798409 0.0951369 
0.0795371 0.100256 0.0899086 0.110402 0.123089 
0.0848519 0.110663 0.0847166 0.119458 0.122296 
0.100234 0.105388 0.121375 0.0744351 0.0694379 
0.120161 0.0950916 0.122245 0.0711932 0.122508 
0.105386 0.0670457 0.115171 0.0752135 0.0900238 
0.116093 0.122451 0.0675702 0.12169 0.0714485 
0.0717484 0.0718188 0.0719091 0.0719968 0.0719489 
0.0716316 0.11751 0.11764 0.122459 0.118168 
0.118519 0.0762931 0.081625 0.0874389 0.0727114 
0.0764926 0.103046 0.113636 0.0976908 0.0926443 
0.113589 0.118124 0.117926 0.118338 0.108093 
0.0717609 0.0925864 0.102799 0.0818851 0.116227 
0.0977945 0.108374 0.087233 0.113929 0.111975 
0.076274 0.0764027 0.0760328 0.0808963 0.085436 
0.0786805 0.110714 0.113032 0.105925 0.113883 
0.11336 0.0766009 0.0761753 0.0953988 0.105258 
0.0758316 0.0903531 0.0901648 0.0951475 0.100543 
0.080513 0.0843652 0.107497 0.100095 0.107818 
0.0806835 0.080691 0.0848378 0.0801522 0.0972823 
0.102259 0.103115 0.110372 0.0983553 0.109151 
0.0884917 0.0930728 0.108961 0.0926068 0.0846292 
0.102984 0.0991606 0.0852298 0.105928 0.104124 
0.0883402 0.0893293 0.0852837 0.0941408 0.095928 
0.0897224 0.0960789 0.100817 0.0906909 
2.27374e-15 0.08 2.27374e-15 0.08 
2.27374e-15 0.08 0.075 0.07 0.065 
0.06 0.055 0.05 0.045 0.04 
0.035 0.03 0.025 0.02 0.015 
0.01 0.005 0.08 0.08 0.08 
0.08 0.08 0.08 0.08 0.08 
0.08 0.005 0.01 0.015 0.02 
0.025 0.03 0.035 0.04 0.045 
0.05 0.055 0.06 0.065 0.07 
0.075 2.27374e-15 2.27374e-15 2.27374e-15 2.27374e-15 
2.27374e-15 2.27374e-15 2.27374e-15 2.27374e-15 2.27374e-15 
0.08 0.08 0.08 0.08 0.08 
0.08 0.08 0.08 0.08 0.08 
0.08 0.08 0.08 0.08 0.08 
0.08 0.08 0.005 0.01 0.015 
0.02 0.025 0.03 0.035 0.04 
0.045 0.05 0.055 0.06 0.065 
0.07 0.075 2.27374e-15 2.27374e-15 2.27374e-15 
2.27374e-15 2.27374e-15 2.27374e-15 2.27374e-15 2.27374e-15 
2.27374e-15 2.27374e-15 2.27374e-15 2.27374e-15 2.27374e-15 
2.27374e-15 2.27374e-15 2.27374e-15 2.27374e-15 0.073068 
0.062485 0.0523731 0.0423956 0.032436 0.0224571 
0.0125876 0.0756118 0.0757056 0.0757568 0.075538 
0.00684692 0.0173529 0.0274681 0.0375397 0.0475266 
0.0574429 0.0673489 0.00434621 0.00436078 0.00444677 
0.00441371 0.067734 0.0573827 0.0473831 0.0374179 
0.0274564 0.0174907 0.00815984 0.0757731 0.0754943 
0.0756791 0.0757735 0.0121385 0.0224228 0.0325115 
0.0425436 0.052485 0.0624263 0.0717924 0.00446898 
0.00440969 0.00441113 0.00413566 0.0649219 0.0248951 
0.0397887 0.0547189 0.0298803 0.0714979 0.0198878 
0.0706789 0.00932699 0.0350954 0.0348322 0.0715723 
0.0715259 0.0713502 0.0705048 0.00907334 0.0597108 
0.0712739 0.0300115 0.0451252 0.0549555 0.0649064 
0.00861035 0.0088934 0.00869946 0.0447738 0.0149144 
0.0249305 0.0497446 0.0198043 0.0500681 0.0147265 
0.0401403 0.0598519 0.00872775 0.00892442 0.0673498 
0.0620638 0.0675375 0.0569997 0.0371363 0.0274877 
0.0618099 0.0428263 0.0273463 0.0172202 0.0135816 
0.0131838 0.0526509 0.0574045 0.012934 0.0171093 
0.0224977 0.0668898 0.0471062 0.0521022 0.0222027 
0.0421173 0.0667477 0.0322049 0.0377877 0.0477772 
0.0672032 0.0672967 0.0125873 0.0326886 0.0133913 
0.0126127 0.0553815 0.0545468 0.029505 0.0639314 
0.0355296 0.0206245 0.0343814 0.018902 0.0598939 
0.0171158 0.044375 0.045627 0.0303415 0.0636227 
0.0494517 0.0249563 0.0393434 0.0593812 0.0406116 
0.0505902 0.0179067 0.0628895 0.0627087 0.0248495 
0.0632608 0.0264799 0.0216868 0.0384827 0.0518159 
0.0229921 0.0333925 0.0282376 0.0364318 0.0414788 
0.0537051 0.0314226 0.0486292 0.0575983 0.0586286 
0.0435586 0.0465816 0.0081473 0.0125732 0.0174806 
0.0224555 0.0274608 0.0324548 0.0374453 0.0424316 
0.0474106 0.052388 0.0573832 0.0624262 0.0675113 
0.0723628 0.0766016 0.0755929 0.0758181 0.0757479 
0.0756651 0.0756727 0.075762 0.0759084 0.0755402 
0.0757835 0.00706306 0.0174327 0.0274061 0.0373642 
0.0473437 0.0573189 0.067246 0.00433442 0.0043048 
0.0043728 0.00443378 0.00442976 0.00441256 0.00437765 
0.00413416 0.00477061 0.0756854 0.075533 0.0758591 
0.0756662 0.0756956 0.0758628 0.0757848 0.0323886 
0.0124082 0.0224161 0.0423477 0.0523318 0.0623034 
0.0717394 0.00443722 0.00432756 0.00441469 0.00443529 
0.00442723 0.00439014 0.0043028 0.0713464 0.0148837 
0.0198814 0.024943 0.0299255 0.0349034 0.0398819 
0.0448425 0.0497813 0.0547125 0.0596866 0.0648307 
0.0705576 0.0715175 0.0713392 0.0713332 0.0704117 
0.0248006 0.0715865 0.071576 0.07185 0.0546145 
0.0197955 0.0714056 0.0446616 0.0397023 0.0148649 
0.034719 0.0718737 0.00929294 0.0646831 0.00859322 
0.0713937 0.0087979 0.00887377 0.00885766 0.00881748 
0.00881046 0.0718415 0.00996794 0.071332 0.049632 
0.0713897 0.0297634 0.0595844 0.00854071 0.00886314 
0.00869224 0.00886515 0.00885463 0.00875821 0.00857761 
0.00796572 0.0682611 0.0225184 0.0274222 0.032357 
0.0373388 0.0422931 0.0472065 0.0520683 0.0568856 
0.0617147 0.0666581 0.0670182 0.0130232 0.0220927 
0.0131941 0.0468895 0.0671421 0.0133069 0.0671176 
0.0129276 0.0666708 0.0677945 0.017043 0.0370156 
0.0675355 0.0616886 0.0320345 0.0132986 0.0669974 
0.0133201 0.0133118 0.0128162 0.0567737 0.0518293 
0.0670219 0.0270931 0.0680608 0.0419698 0.0136707 
0.0669935 0.0670135 0.0171757 0.0131492 0.0125506 
0.0133396 0.0133028 0.0122023 0.0675304 0.0297541 
0.0347961 0.0397496 0.0446635 0.0495121 0.054255 
0.0588564 0.0633492 0.0242852 0.0628512 0.0627499 
0.0177389 0.0177718 0.0178363 0.0178074 0.0193199 
0.0625335 0.0627142 0.017857 0.0169456 0.0342793 
0.0627075 0.0626619 0.0639943 0.0174223 0.0169668 
0.0588243 0.017757 0.0292436 0.0647308 0.0441502 
0.0178329 0.0205976 0.0174859 0.0637711 0.0626877 
0.0629668 0.0392592 0.0249284 0.0537802 0.0215497 
0.0372264 0.0421197 0.0469915 0.0518164 0.0564555 
0.0608207 0.0313785 0.0261956 0.0489322 0.0415281 
0.0212899 0.0591826 0.0575479 0.0583134 0.0267029 
0.0221204 0.0222809 0.0584853 0.0584741 0.0585421 
0.022342 0.0463155 0.0365078 0.0505833 0.058324 
0.0322538 0.0222691 0.0583706 0.0224499 0.0543419 
0.0222023 0.0225196 0.0224769 0.0438969 0.0279031 
0.0444054 0.0493648 0.0347264 0.051807 0.053786 
0.0266568 0.053924 0.0338465 0.0268774 0.0389079 
0.0491998 0.0543431 0.0395204 0.0267594 0.0540075 
0.030308 0.054476 0.0267536 0.0543147 0.0266024 
0.0366857 0.0276973 0.0496161 0.0541357 0.0319603 
0.0466526 0.0416697 0.0488137 0.0316057 0.0499438 
0.0497438 0.0305903 0.0411969 0.0314235 0.0452492 
0.0507574 0.0313837 0.0369063 0.0502615 0.0336304 
0.035689 0.0455313 0.0438632 0.0408287 0.0452902 
0.0309644 0.0465264 0.0387841 0.045836 0.0366194 
0.0355994 0.0417534 0.0407401 0.0411759 
9.51984e-05 8.51351e-05 8.31393e-05 8.35375e-05 
8.38464e-05 8.37091e-05 8.37098e-05 8.27532e-05 8.42404e-05 
0.000118582 0.000123822 0.000126371 0.000126287 0.000125127 
0.000111381 0.00012305 0.000125678 0.000125639 0.00012706 
0.000127202 0.000127191 0.000124818 0.000133227 0.000123075 
0.000124043 0.000123546 0.000124121 0.000112178 0.000104056 
0.00012141 0.000108304 8.45115e-05 0.000108 8.33096e-05 
8.37668e-05 8.38111e-05 8.36142e-05 8.31422e-05 0.00010864 
8.17938e-05 0.000123174 0.000126533 0.000123659 0.000125239 
0.000124664 0.000122515 0.000126012 0.000109337 0.000118267 
0.000123604 0.000125517 0.000126749 0.000127265 0.000126433 
0.000126482 0.000126353 0.000125508 0.000123736 0.000123636 
0.000128406 0.000108799 0.000126023 0.000108745 0.000108584 
0.000108673 0.000108434 0.000104624 0.000122197 0.000121421 
0.000120113 0.000120366 0.000120476 0.000120885 0.000122354 
0.000124032 0.00012381 0.000120539 0.000106152 0.000120435 
0.000120391 0.000120835 0.000120696 0.0001223 0.000124271 
0.000123886 0.000108652 0.000108963 0.000121312 0.000121343 
0.000122181 0.00012169 0.000121859 0.000117372 0.000125894 
0.000111799 0.000111175 0.000111205 0.000125109 0.000111878 
0.000127664 0.00013022 0.000127794 0.000111554 0.000132232 
0.000107384 0.000125523 0.000125115 0.000122489 0.000123122 
0.000125305 0.00012405 0.000124452 0.000129162 0.000123425 
0.00011003 0.000132516 0.000108065 0.000127046 0.000117001 
0.000127347 0.000120185 0.000128052 0.000126698 0.000128367 
0.000124225 0.000131233 0.000142039 0.000123806 0.000123252 
0.000111793 0.000132147 0.000115382 0.000132428 0.000110735 
0.000133138 0.000111748 0.000131945 0.000126335 0.0001213 
0.000121955 0.000126817 0.000134966 0.000113818 0.000133755 
0.000121673 0.000121808 0.000121509 0.000132083 0.000119883 
0.000132357 0.000132024 0.000133487 0.000123651 0.000120359 
0.000127899 0.000127996 0.000127918 0.00012064 0.000119798 
0.000127648 0.000118014 0.000118317 0.000123847 0.000128475 
0.000117403 0.000131048 0.000123857 0.000121387 0.000124475 
0.000124891 0.000120112 0.000125103 0.000120344 0.000120191 
0.00012058 0.00012296 0.00012391 0.000129839 0.000126656 
0.000115579 0.000115994 0.000127238 0.000115089 0.000129933 
0.000128237 0.000114475 0.000119795 0.000123675 0.000123625 
0.000126593 0.000128235 0.000128702 0.000122107 0.00012328 
0.000125685 0.000127159 0.000112681 0.000133167 0.000130314 
0.000123688 0.000127765 0.000115938 0.000115751 0.000132365 
0.000124932 0.000119472 0.000115818 0.000132305 0.00011826 
0.000122774 0.000128231 0.000115549 0.000132259 0.000128394 
0.000119685 0.000128281 0.000120161 0.00012427 0.00012446 
0.000125562 0.000119845 0.000125557 0.000122466 0.000121081 
0.000132251 0.00013218 0.000121939 0.00012005 0.000131538 
0.000137934 0.00012806 0.000122979 0.000120851 0.000124428 
0.000117886 0.000126596 0.000123417 0.000132972 0.000123916 
0.000116071 0.000119729 0.000119665 0.000130208 0.000117683 
0.000122724 0.000128796 0.000117065 0.000130179 0.000117373 
0.000135081 0.000126895 0.00012907 0.000114805 0.000117677 
0.000130657 0.000114297 0.000129315 0.000119418 0.000122673 
0.000123988 0.000116975 0.000128668 0.000129107 0.000118954 
0.000123051 0.000112107 0.000116457 0.00013213 0.000123431 
0.000127356 0.000118933 0.000117443 0.000130761 0.000114627 
0.000128704 0.000132732 0.000129017 0.000118966 0.000128599 
0.000118646 0.000120135 0.000127762 0.000123341 0.000124099 
0.000133234 0.000124919 0.000124998 0.000118959 0.000119383 
0.000125817 0.00011928 0.000120373 0.000118775 0.000114956 
0.000121727 0.000125751 0.000133092 0.000131251 0.000130019 
0.000118726 0.000119011 0.000119178 0.000122325 0.000132741 
0.000129408 0.000124265 0.000129825 0.000120223 0.000126525 
0.000129121 0.000131513 0.000131027 0.000118103 0.000131761 
0.000119418 0.000117611 0.000119154 0.000118239 0.000129635 
0.000125988 0.000120467 0.000128078 0.000128657 0.000117838 
0.000126972 0.000125028 0.000126722 0.000123782 0.000117349 
0.000118066 0.000129588 0.000128925 0.000129059 0.000125444 
0.000117752 0.000130498 0.000117522 0.000132086 0.000117666 
0.000117296 0.000130739 0.000123609 0.000128711 0.000130065 
0.000120823 0.000129669 0.000130548 0.000117022 0.000117795 
0.00012025 0.000118436 0.000125922 0.000128177 0.000117235 
0.000126912 0.000120587 0.000137229 0.0001161 0.000114719 
0.000126023 0.000120854 0.000130844 0.000116427 0.000129253 
0.000116416 0.000134147 0.000114385 0.000134405 0.000114355 
0.000133885 0.000114388 0.000133854 0.000114459 0.000133739 
0.000116911 0.000133196 0.000117245 0.000133211 0.000117064 
0.000133533 0.000117331 0.000134451 0.000115259 0.000132906 
0.000112444 0.000116876 0.000129126 0.000118949 0.000124226 
0.000126599 0.000126477 0.000126461 0.000126526 0.000126166 
0.000125843 0.000126358 0.000125895 0.000124733 0.000133094 
0.000111207 0.000125112 0.000128329 0.000130039 0.000127723 
0.00012736 0.000126676 0.000125602 0.000119551 0.000126343 
0.000124141 0.000123816 0.000123576 0.00012333 0.000123326 
0.000123886 0.000127069 0.000129415 0.000125844 0.000138137 
0.00013294 0.000122124 0.000126411 0.000123834 0.000125539 
0.000124996 0.000126742 0.000122427 0.000126518 0.000126418 
0.000125874 0.000126141 0.000114716 0.000132629 0.000122859 
0.00012797 0.000128005 0.000121798 0.000127539 0.000127001 
0.000126519 0.000126927 0.000125539 0.000123992 0.000123707 
0.000123439 0.000123278 0.000123521 0.000124785 0.000121094 
0.000113496 0.000122543 0.000122728 0.000123611 0.000122088 
0.000120919 0.000121675 0.000121938 0.000122505 0.000123285 
0.000123545 0.000124078 0.000123957 0.000124063 0.000123854 
0.000122892 0.000123316 0.000122232 0.000122906 0.000121932 
0.000123975 0.000123998 0.000123987 0.000123985 0.000123748 
0.000121242 0.000119437 0.000123169 0.000121737 0.000122569 
0.000121272 0.000120403 0.000121723 0.000122173 0.000119789 
0.000125138 0.000118989 0.000115268 0.000133156 0.000114419 
0.0001347 0.000114569 0.00013412 0.000114406 0.000133551 
0.000114359 0.00013358 0.000114444 0.000133416 0.000114625 
0.000133101 0.000115275 0.000132669 0.000115636 0.000132387 
0.000120167 0.000132852 0.00012046 0.000132299 0.000127253 
0.00012537 0.000125187 0.000122959 0.00012505 0.000124964 
0.000130647 0.000128912 0.00012432 0.000125394 0.000124815 
0.000125668 0.000126917 0.000121015 0.000124801 0.000124365 
0.000126714 0.000126644 0.000121734 0.000128172 0.000120958 
0.000126549 0.000121581 0.000125778 0.0001208 0.000124594 
0.000125221 0.000124201 0.000132146 0.000125088 0.000122818 
0.000134412 0.000124201 0.000124111 0.000123848 0.000123915 
0.000124158 0.000124102 0.000123941 0.000134186 0.000118328 
0.000120842 0.000125099 0.000123035 0.000132223 0.000126246 
0.000122122 0.000113244 0.000123322 0.000133091 0.000124826 
0.000120777 0.000126765 0.000132061 0.000123093 0.000122019 
0.000114343 0.000130794 0.000119007 0.000121845 0.000121938 
0.000117338 0.00012618 0.000125317 0.000125149 0.00012435 
0.000124255 0.000124205 0.000124238 0.000124011 0.000124353 
0.000123986 0.000123853 0.00012396 0.000122575 0.000125004 
0.000124146 0.00011692 0.000137906 0.000122318 0.000123819 
0.000124255 0.000124027 0.00011682 0.00012452 0.000124312 
0.000121873 0.000117806 0.000124426 0.000124048 0.000124151 
0.000126925 0.000120262 0.000119844 0.000125081 0.000114494 
0.00012836 0.000114337 0.000133551 0.000114471 0.000133389 
0.000114768 0.000132971 0.000115503 0.000132153 0.000116384 
0.000130851 0.0001172 0.00012947 0.000119835 0.000122643 
0.000127939 0.000125425 0.000123521 0.000126545 0.000123847 
0.000123235 0.000126566 0.000125052 0.000123673 0.000123791 
0.000124651 0.000124253 0.000128741 0.000129039 0.00013288 
0.000124121 0.000118306 0.000125736 0.000121066 0.000126329 
0.000125396 0.000116378 0.000121208 0.000124945 0.000124128 
0.00012585 0.000121804 0.000124275 0.000125037 0.000124074 
0.000123612 0.000124469 0.000123547 0.000124716 0.000124524 
0.000124244 0.000125848 0.000122417 0.000122912 0.00012523 
0.00012282 0.00012516 0.000121943 0.00012365 0.000123149 
0.000126436 0.000122209 0.000121496 0.000129471 0.000123196 
0.000125275 0.000122489 0.00012321 0.000122894 0.000124958 
0.000121968 0.000119014 0.000124196 0.000118244 0.000123994 
0.000124246 0.000123234 0.00012385 0.000133741 0.000123822 
0.000127901 0.000122584 0.000121464 0.000115932 0.000123903 
0.000124078 0.000124975 0.000124641 0.000123347 0.00012929 
0.000124497 0.000125725 0.000124434 0.000127895 0.000116432 
0.00011529 0.000114183 0.000133778 0.00011444 0.000133365 
0.000114878 0.000133046 0.00011554 0.000132338 0.000116704 
0.000130869 0.000117897 0.000128462 0.000117739 0.000124145 
0.000125953 0.000125615 0.000124839 0.000126856 0.000125446 
0.000124357 0.000123415 0.000124255 0.00012347 0.000120115 
0.000127026 0.000121725 0.000125633 0.000123501 0.000124801 
0.000124437 0.000124065 0.000123615 0.000125596 0.000125563 
0.000125111 0.000123206 0.000125015 0.00012345 0.000123488 
0.000125147 0.00012497 0.000124281 0.000124992 0.0001208 
0.00012455 0.000125689 0.000118657 0.000120031 0.000123845 
0.0001236 0.000124509 0.000124612 0.000122068 0.000123127 
0.000114865 0.000126425 0.000123136 0.000124823 0.000114883 
0.000122787 0.000124059 0.000128487 0.000124802 0.000118581 
0.000125937 0.000122507 0.000119024 0.00012511 0.000120591 
0.000124133 0.000123776 0.00012301 0.000133444 0.000126214 
0.000120199 0.000128779 0.00012444 0.000123174 0.000122283 
0.000122075 0.00012105 0.000121717 0.000122594 0.00012987 
0.000114138 0.000114869 0.000133036 0.000115552 0.000132699 
0.000116254 0.000132894 0.000116996 0.000130847 0.000117718 
0.000124382 0.000129276 0.0001239 0.000121579 0.00012321 
0.000122963 0.000127011 0.000129153 0.000126343 0.000123379 
0.000139506 0.000126925 0.000126179 0.000129758 0.000127802 
0.000127606 0.000116227 0.000123964 0.00012476 0.000128969 
0.000124623 0.000119277 0.0001228 0.000125756 0.000126098 
0.000123756 0.000125216 0.00012569 0.000123389 0.00012114 
0.000122404 0.000123897 0.00013287 0.000125771 0.000115159 
0.000134748 0.000125789 0.000114829 0.000134161 0.000121884 
0.000125779 0.000126009 0.000120817 0.000125492 0.000113043 
0.000123289 0.000123866 0.000125305 0.00012351 0.000124355 
0.000124732 0.000120868 0.000128371 0.000131197 0.000123386 
0.000125209 0.000122371 0.000121995 0.00012037 0.000126779 
0.000124472 0.000122714 0.000122997 0.000134792 0.000134208 
0.000125259 0.000125105 0.000125628 0.000115957 0.000115999 
0.000121131 0.000132077 0.000119943 0.000119208 0.000128144 
0.000123384 0.000122365 0.000123691 0.000117797 0.000124097 
0.000125136 0.00011902 0.000127039 0.000124632 0.000122237 
0.000128251 0.000120377 0.000121989 0.000124875 0.000118153 
0.000116869 0.00011999 0.000135626 0.000116436 0.000125613 
0.000115428 0.00012345 0.000126234 0.000132121 0.000114559 
0.00013238 0.00012101 0.000122898 0.000123519 0.000119617 
0.00012012 0.000124747 0.000120134 0.000127118 0.000123334 
0.000125169 0.000125024 0.000124765 0.000123039 0.000126435 
0.000129239 0.0001277 0.000118957 0.000116307 0.000128621 
0.000127764 0.000123757 0.000131895 0.000124952 0.000125423 
0.00011638 0.000117876 0.000131573 0.000130412 0.000129453 
0.000123838 0.000110351 0.000125595 0.000133097 0.000127492 
0.000125975 0.00012759 0.000123036 0.000126001 0.000126815 
0.000122562 0.000128839 0.000134069 0.000132826 0.000121812 
0.000117937 0.000136277 0.000124359 0.000114706 0.000123305 
0.000123497 0.000118932 0.000124523 0.000126484 0.000130727 
0.000124099 0.000110721 0.000122376 0.000125756 0.000119228 
0.000131346 0.000125164 0.00012444 0.0001298 0.000117736 
0.000126597 0.000120227 0.000123012 0.000119229 0.000132484 
0.000127531 0.000130615 0.00011766 0.000123386 0.00011477 
0.000113992 0.000128227 0.000117508 0.000128381 0.000113496 
0.000132603 0.00011823 0.000118854 0.00012139 0.00012763 
0.00012305 0.000114661 0.000121395 0.00012084 0.000131745 
0.000120544 0.000123663 0.00012934 0.000125317 0.00012827 
0.000121521 0.000127778 0.000127668 0.000121263 0.000127279 
0.000132648 0.000135974 0.000126614 0.000121374 0.000119514 
0.00011859 0.000123804 0.000113382 0.000128487 0.000128135 
0.000125001 0.000126905 
848.987 1030.62 1032.08 1031.01 
1031.34 1030.89 1030.79 1030.44 1038.82 
928.645 913.227 910.617 908.989 914.218 
1095.44 1099.06 1099.2 1099.7 1100.14 
1100.14 1099.94 1099.55 1065.53 1096.4 
1098.19 1098.15 1098.22 1062.2 1080.54 
1098.24 1083.37 1033.57 1083.54 1030.54 
1031.29 1031.15 1030.63 1032.79 1084.24 
1029.73 1059.33 908.526 1061.44 916.541 
1060.83 1058.8 911.24 1084.35 907.656 
1099.47 1099.7 1100.1 1100.17 1099.75 
1099.88 1100.11 1098.49 1098.17 1098.14 
1098.49 1084.26 1056.97 1084.33 1084.27 
1084.21 1084.31 1081.88 1059.19 1097.38 
1096.98 1097.02 1097.16 1097.31 1097.55 
1098.32 1098.3 1097.8 1083.54 1097.03 
1097.04 1097.24 1097.3 1098.02 1098.38 
1098.32 1084.32 1084.36 1097.3 1097.5 
1059.86 1097.68 1097.79 1094.07 1099.14 
1092.85 1092.67 1092.68 1097.33 1092.82 
1097.7 1096.81 1099.6 1092.78 1100.31 
1087.96 1097.31 1097.3 1098 1098.12 
1097.21 1098.27 1098.07 1099.17 1098.34 
1092.33 1100.25 1079.6 1097.86 1096.66 
1099.54 1096.95 1099.62 1099.2 1099.62 
1098.21 1098.05 1101.53 1098.28 1098.13 
1092.85 1100.29 1093.15 1099.71 1092.55 
1100.58 1092.83 1100.26 1099.19 1097.28 
1097.36 1097.52 1098.95 1096.13 1100.22 
1097.79 1098.28 1095.1 1100.28 1096.92 
1100.38 1100.25 1100.15 1098.36 1096.98 
1099.53 1099.45 1099.62 1097.15 1097.32 
1099.38 1097.2 1097.44 1098.25 1098.96 
1096.45 1099.51 1098.34 1097.35 1098.43 
1098.5 1096.92 1098.54 1097.17 1096.92 
1097.22 1098.17 1098.35 1099.84 1098.78 
1095.62 1095.64 1099.51 1095.9 1100.35 
1099.69 1095.23 1096.39 1098.33 1098.19 
1098.79 1099.6 1099.65 1097.5 1098.17 
1098.67 1099.26 1094.77 1100 1100.22 
1098.08 1098.69 1095.6 1095.56 1100.68 
1098.92 1096.88 1095.59 1100.54 1096.94 
1098.35 1099.65 1095.52 1100.51 1099.71 
1096.76 1099.67 1096.86 1098.37 1098.57 
1098.48 1096.77 1098.81 1097.92 1097.46 
1100.59 1100.51 1097.43 1097.47 1100.54 
1101.27 1099.65 1097.33 1097.06 1098.51 
1096.85 1098.24 1098.26 1100.17 1098.13 
1097.02 1096.85 1096.78 1099.63 1097.35 
1098.43 1099.72 1095.82 1099.54 1096.08 
1100.53 1098.46 1099.87 1096.78 1096.16 
1100.05 1095.98 1099.64 1096.52 1097.45 
1098.07 1095.94 1099.81 1099.85 1096.56 
1097.72 1095.42 1095.75 1100.5 1099.09 
1099.56 1096.65 1096.1 1100.17 1095.22 
1098.83 1099.99 1099.86 1096.48 1099.76 
1096.3 1097.95 1099.04 1098.1 1098.46 
1099.78 1098.79 1098.41 1096.5 1097.58 
1098.97 1096.81 1097.64 1096.95 1096.54 
1098.42 1098.95 1100.39 1100.31 1099.27 
1096.38 1097.22 1096.92 1097.37 1100.15 
1098.94 1098.1 1100.07 1096.82 1098.33 
1099.52 1100.23 1100.24 1096.18 1100.37 
1096.57 1096.02 1096.61 1096.36 1100.15 
1099.45 1096.95 1099.68 1099.91 1096.15 
1098.58 1099.07 1099.2 1099.05 1096.24 
1096.75 1099.79 1100.01 1099.95 1099.25 
1096.2 1100.14 1096.06 1100.76 1096.08 
1096.66 1099.26 1097.73 1099.96 1100.24 
1098.52 1100.25 1100.47 1096.02 1096.1 
1096.83 1096.49 1098.02 1099.67 1095.89 
1099.66 1097.2 1100.64 1096.38 1095.38 
1098.51 1097.06 1100.45 1095.73 1100.29 
1095.73 1101.15 1095.21 1101.19 1095.21 
1101 1095.22 1101 1095.25 1100.97 
1095.92 1100.87 1096.02 1100.9 1095.88 
1100.91 1095.86 1100.59 1095.62 1100.82 
1047.06 875.092 1097.56 929.377 913.83 
907.271 909.305 911.795 911.546 908.664 
904.301 915.059 906.638 1059.01 1049.11 
1095.27 1098.17 1098.69 1098.78 1098.61 
1098.55 1098.44 1098.2 1097.79 1098.47 
1098.24 1098.22 1098.18 1098.14 1098.14 
1098.22 1098.6 1098.87 1098.61 1100.9 
1065.89 1059.34 911.182 1061.4 915.442 
1060.07 905.972 1059.75 911.771 910.771 
905.554 908.372 1095.23 1099.44 1058.53 
1098.61 1098.63 1097.32 1098.58 1098.49 
1098.42 1098.69 1098.54 1098.24 1098.2 
1098.16 1098.13 1098.16 1098.36 1060.34 
1096.46 1059.85 1059.58 1058.02 1058.33 
1097.18 1097.33 1097.37 1097.45 1097.59 
1098.26 1098.36 1098.34 1098.36 1098.32 
1098.18 1057.49 1097.41 1097.51 1097.97 
1098.34 1098.35 1098.34 1098.34 1098.31 
1097.89 1097.2 1058.97 1058.6 1059.81 
1097.18 1097.14 1097.35 1098 1097.04 
1097.37 1096.49 1095.41 1100.84 1095.24 
1100.32 1095.3 1100.38 1095.25 1100.94 
1095.24 1100.95 1095.27 1100.91 1095.33 
1100.84 1095.57 1100.69 1095.69 1100.52 
1096.95 1100.66 1096.51 1099.99 1095.83 
1097.04 1097.41 1098.06 1097.41 1098.17 
1099.46 1099.35 1096.97 1097.47 1097.21 
1099.07 1099.26 1097.34 1097.21 1098.34 
1099.24 1099.22 1097.47 1099.43 1097.31 
1099.22 1097.44 1097.23 1097.68 1098.67 
1098.98 1098.32 1098.25 1097.43 1098.04 
1100.29 1098.33 1098.33 1098.28 1098.3 
1098.37 1096.85 1098.25 1100.38 1096.54 
1097.22 1097.4 1098.08 1099.27 1099.16 
1097.55 1095.97 1098.13 1099.53 1098.4 
1097.62 1098.08 1099.9 1098.09 1097.89 
1095.28 1100.76 1097.59 1097.47 1097.53 
1096.37 1097.9 1098.52 1098.97 1098.23 
1098.4 1098.34 1098.33 1098.35 1098.42 
1098.3 1098.29 1098.28 1097.61 1098.55 
1097.79 1097.37 1101.46 1098.09 1098.32 
1098.39 1098.35 1096.65 1098.42 1098.4 
1097.47 1097.16 1098.43 1098.35 1098.37 
1098.54 1097.23 1096.95 1099.09 1095.28 
1100.07 1095.23 1100.95 1095.27 1100.91 
1095.35 1100.83 1095.6 1100.66 1095.95 
1100.34 1096.39 1099.92 1097.21 1098.51 
1099.49 1098.75 1098.12 1099.2 1098.31 
1098.22 1099.2 1098.78 1098.27 1098.3 
1098.59 1098.31 1098.91 1100.05 1100.02 
1098.49 1096.9 1099.02 1097.43 1099.17 
1098.93 1096.75 1097.62 1098.93 1097.98 
1099.08 1097.49 1098.36 1098.68 1098.32 
1098.24 1098.42 1098.23 1098.49 1098.85 
1097.91 1099.08 1097.66 1097.73 1098.71 
1097.95 1099.8 1097.53 1098.23 1097.92 
1099.18 1097.59 1097.49 1099.14 1098.79 
1098.73 1097.88 1098.02 1097.94 1098.7 
1097.54 1096.33 1098.32 1096.93 1098.35 
1098.35 1098.02 1098.32 1100.41 1098.27 
1099.35 1097.36 1097.45 1096.88 1098.38 
1098.36 1098.55 1098.24 1098.07 1099.42 
1098.45 1098.55 1098.42 1098.94 1096.68 
1095.43 1095.2 1101.01 1095.26 1100.92 
1095.37 1100.85 1095.55 1100.72 1095.93 
1100.5 1096.42 1100.09 1096.68 1098.81 
1099.48 1099 1098.59 1098.83 1098.73 
1098.36 1098.2 1098.36 1098.28 1097.88 
1099.28 1097.57 1098.84 1098.13 1098.7 
1098.39 1098.37 1098.28 1098 1099.01 
1098.68 1098.02 1098.69 1098.04 1098.07 
1098.81 1098.03 1098.3 1098.56 1098.07 
1098.21 1098.66 1097.53 1097.1 1098.27 
1098.27 1098.43 1098.82 1097.57 1097.77 
1096.18 1099.14 1098.17 1098.47 1096.81 
1098.14 1098.35 1099.06 1098.46 1097.33 
1098.85 1097.68 1097.72 1098.53 1097.74 
1098.84 1098.04 1098.64 1099.87 1099.12 
1096.86 1099.58 1098.83 1097.89 1097.83 
1097.57 1097.58 1097.85 1097.63 1099.07 
1095.16 1095.36 1100.77 1095.51 1100.72 
1095.64 1100.17 1095.83 1100.57 1096.22 
1098.29 1099.32 1098.66 1097.51 1098.5 
1097.84 1099.26 1099.37 1099.02 1097.9 
1101.36 1098.66 1099.18 1099.25 1098.67 
1099.24 1096.47 1097.7 1097.7 1099.3 
1098.39 1096.92 1098.08 1099.34 1098.33 
1097.92 1098.67 1098.76 1098.07 1097.58 
1098.4 1098.08 1100.06 1098.77 1095.38 
1100.27 1099.04 1094.97 1100.19 1097.55 
1098.91 1098.61 1097.98 1098.8 1094.88 
1098.1 1098.27 1098.71 1098.09 1098.4 
1098.45 1098.01 1098.82 1099.55 1098.18 
1098.55 1098.12 1097.57 1097.46 1098.79 
1098.43 1098.09 1097.92 1100.37 1100.32 
1098.52 1098.58 1099.96 1096.2 1095.68 
1097.2 1100.79 1097.76 1096.89 1098.5 
1098.04 1098.9 1098.54 1096.83 1098.36 
1098.57 1097.46 1099.13 1098.76 1097.89 