
TITLE     = "DG2D to Tecplot"
VARIABLES = "X"
"Y"
"RHO"
"U"
"V"
"VELOCITY_MAG"
"P"
"T"
"THETA1"
"THETA2"
ZONE T="ZONE 1"
STRANDID=0
ZONETYPE=FEQuadrilateral
DATAPACKING=BLOCK
VARLOCATION=([3-10]=CELLCENTERED)
DT=(SINGLE SINGLE SINGLE SINGLE SINGLE SINGLE SINGLE SINGLE SINGLE SINGLE)

Nodes=548, Elements=1006
0.05 0.05 -3.88578e-16 -3.88578e-16 
0.14 0.14 -3.88578e-16 -3.88578e-16 -3.88578e-16 
-3.88578e-16 -3.88578e-16 -3.88578e-16 -3.88578e-16 -3.88578e-16 
-3.88578e-16 -3.88578e-16 -3.88578e-16 -3.88578e-16 -3.88578e-16 
-3.88578e-16 -3.88578e-16 0.045 0.04 0.035 
0.03 0.025 0.02 0.015 0.01 
0.005 0.05 0.05 0.05 0.05 
0.05 0.05 0.05 0.05 0.05 
0.05 0.05 0.05 0.05 0.05 
0.05 0.005 0.01 0.015 0.02 
0.025 0.03 0.035 0.04 0.045 
0.135 0.13 0.125 0.12 0.115 
0.11 0.105 0.1 0.095 0.09 
0.085 0.08 0.075 0.07 0.065 
0.06 0.055 0.14 0.14 0.14 
0.14 0.14 0.14 0.14 0.14 
0.14 0.14 0.14 0.14 0.14 
0.14 0.14 0.055 0.06 0.065 
0.07 0.075 0.08 0.085 0.09 
0.095 0.1 0.105 0.11 0.115 
0.12 0.125 0.13 0.135 0.00441872 
0.00441736 0.004436 0.00447963 0.00443661 0.00442809 
0.00446324 0.0431093 0.0326026 0.0225849 0.012701 
0.0456369 0.0455014 0.0454191 0.0454932 0.0455855 
0.045728 0.0455948 0.00686385 0.0173913 0.0275096 
0.0374057 0.00459018 0.00438888 0.00447111 0.00446296 
0.00440999 0.00444058 0.0041588 0.0275527 0.0378107 
0.0176153 0.00824326 0.0454589 0.0454265 0.04545 
0.0455365 0.045657 0.0457159 0.0458195 0.0121629 
0.0224825 0.0324913 0.0418324 0.00884743 0.0407955 
0.00896493 0.00883337 0.00884395 0.0202569 0.0089191 
0.00960327 0.00913755 0.0409532 0.00891496 0.0299881 
0.0251115 0.0351123 0.0407922 0.0406239 0.00869536 
0.0152134 0.040863 0.0411027 0.0413788 0.0414018 
0.0147973 0.0250314 0.035068 0.00897282 0.00884337 
0.00878903 0.00894468 0.0408949 0.0412111 0.0411742 
0.0410198 0.0415391 0.0199257 0.0300758 0.0181923 
0.0375368 0.0321532 0.0131811 0.0134605 0.0361954 
0.01281 0.0365476 0.0132023 0.0138665 0.0276681 
0.0224389 0.0368659 0.0372007 0.01732 0.0364307 
0.0130739 0.0369863 0.013514 0.0134359 0.0360531 
0.0135036 0.0133544 0.0133615 0.0364685 0.0366656 
0.0228464 0.0274905 0.0372549 0.0363487 0.0327417 
0.0127553 0.0325643 0.0180184 0.0177933 0.0339523 
0.0318517 0.0170449 0.0179754 0.030792 0.0332087 
0.0195711 0.0181048 0.0320417 0.0316947 0.0164669 
0.0181104 0.0313771 0.0180654 0.0173838 0.0319544 
0.0321959 0.0248135 0.0206575 0.0253095 0.0174691 
0.029892 0.0221651 0.0214055 0.0273201 0.0228112 
0.0263727 0.0271974 0.0269534 0.0226528 0.0227146 
0.0276684 0.0225027 0.0274642 0.0228787 0.0284579 
0.027379 0.0227541 0.0541483 0.054455 0.0544357 
0.0544198 0.0543809 0.0543673 0.0543567 0.0543501 
0.0543497 0.0543572 0.0543884 0.0544802 0.0546144 
0.0542672 0.0534098 0.133037 0.122575 0.112549 
0.102561 0.0925489 0.0826102 0.0726712 0.0625365 
0.057671 0.135875 0.135809 0.135651 0.135618 
0.135581 0.135408 0.135325 0.0568516 0.0673419 
0.07744 0.0874743 0.0975143 0.107513 0.117415 
0.126932 0.131627 0.107566 0.127754 0.11752 
0.0975524 0.0875651 0.077664 0.0676187 0.135623 
0.135945 0.135709 0.135614 0.135497 0.13535 
0.135691 0.0621381 0.0724076 0.0824555 0.0924955 
0.102523 0.11248 0.122242 0.0900736 0.0588264 
0.0589122 0.058766 0.0587489 0.0587265 0.0587067 
0.058704 0.0587099 0.0587266 0.0587989 0.0590518 
0.0596068 0.125008 0.095086 0.105152 0.130493 
0.131338 0.0802277 0.115121 0.0704073 0.130889 
0.131483 0.0851154 0.131225 0.131239 0.13172 
0.131219 0.119963 0.0591113 0.13068 0.0698001 
0.110174 0.0798781 0.0899655 0.100058 0.110037 
0.119878 0.075371 0.132083 0.100117 0.131105 
0.0652927 0.131244 0.130709 0.0647365 0.0849132 
0.0748443 0.0950184 0.105071 0.114964 0.124499 
0.128582 0.122093 0.0630798 0.0631493 0.063128 
0.0630706 0.0630644 0.0630797 0.0630909 0.0630964 
0.063189 0.0637306 0.092579 0.11746 0.127108 
0.112589 0.126825 0.112912 0.107676 0.082599 
0.0722022 0.126137 0.068421 0.127289 0.126817 
0.117795 0.125898 0.126773 0.0822879 0.102721 
0.0924919 0.102661 0.0672228 0.126001 0.126534 
0.0976452 0.126867 0.0731853 0.126866 0.122837 
0.0875439 0.107828 0.0638334 0.0772251 0.0627122 
0.0873865 0.0975919 0.12775 0.077822 0.0676322 
0.0674369 0.0674204 0.0674561 0.0675016 0.0675031 
0.0674343 0.0674297 0.122561 0.0798409 0.0951369 
0.0795371 0.100256 0.0899086 0.110402 0.123089 
0.0848519 0.110663 0.0847166 0.119458 0.122296 
0.100234 0.105388 0.121375 0.0744351 0.0694379 
0.120161 0.0950916 0.122245 0.0711932 0.122508 
0.105386 0.0670457 0.115171 0.0752135 0.0900238 
0.116093 0.122451 0.0675702 0.12169 0.0714485 
0.0717484 0.0718188 0.0719091 0.0719968 0.0719489 
0.0716316 0.11751 0.11764 0.122459 0.118168 
0.118519 0.0762931 0.081625 0.0874389 0.0727114 
0.0764926 0.103046 0.113636 0.0976908 0.0926443 
0.113589 0.118124 0.117926 0.118338 0.108093 
0.0717609 0.0925864 0.102799 0.0818851 0.116227 
0.0977945 0.108374 0.087233 0.113929 0.111975 
0.076274 0.0764027 0.0760328 0.0808963 0.085436 
0.0786805 0.110714 0.113032 0.105925 0.113883 
0.11336 0.0766009 0.0761753 0.0953988 0.105258 
0.0758316 0.0903531 0.0901648 0.0951475 0.100543 
0.080513 0.0843652 0.107497 0.100095 0.107818 
0.0806835 0.080691 0.0848378 0.0801522 0.0972823 
0.102259 0.103115 0.110372 0.0983553 0.109151 
0.0884917 0.0930728 0.108961 0.0926068 0.0846292 
0.102984 0.0991606 0.0852298 0.105928 0.104124 
0.0883402 0.0893293 0.0852837 0.0941408 0.095928 
0.0897224 0.0960789 0.100817 0.0906909 
2.27374e-15 0.08 2.27374e-15 0.08 
2.27374e-15 0.08 0.075 0.07 0.065 
0.06 0.055 0.05 0.045 0.04 
0.035 0.03 0.025 0.02 0.015 
0.01 0.005 0.08 0.08 0.08 
0.08 0.08 0.08 0.08 0.08 
0.08 0.005 0.01 0.015 0.02 
0.025 0.03 0.035 0.04 0.045 
0.05 0.055 0.06 0.065 0.07 
0.075 2.27374e-15 2.27374e-15 2.27374e-15 2.27374e-15 
2.27374e-15 2.27374e-15 2.27374e-15 2.27374e-15 2.27374e-15 
0.08 0.08 0.08 0.08 0.08 
0.08 0.08 0.08 0.08 0.08 
0.08 0.08 0.08 0.08 0.08 
0.08 0.08 0.005 0.01 0.015 
0.02 0.025 0.03 0.035 0.04 
0.045 0.05 0.055 0.06 0.065 
0.07 0.075 2.27374e-15 2.27374e-15 2.27374e-15 
2.27374e-15 2.27374e-15 2.27374e-15 2.27374e-15 2.27374e-15 
2.27374e-15 2.27374e-15 2.27374e-15 2.27374e-15 2.27374e-15 
2.27374e-15 2.27374e-15 2.27374e-15 2.27374e-15 0.073068 
0.062485 0.0523731 0.0423956 0.032436 0.0224571 
0.0125876 0.0756118 0.0757056 0.0757568 0.075538 
0.00684692 0.0173529 0.0274681 0.0375397 0.0475266 
0.0574429 0.0673489 0.00434621 0.00436078 0.00444677 
0.00441371 0.067734 0.0573827 0.0473831 0.0374179 
0.0274564 0.0174907 0.00815984 0.0757731 0.0754943 
0.0756791 0.0757735 0.0121385 0.0224228 0.0325115 
0.0425436 0.052485 0.0624263 0.0717924 0.00446898 
0.00440969 0.00441113 0.00413566 0.0649219 0.0248951 
0.0397887 0.0547189 0.0298803 0.0714979 0.0198878 
0.0706789 0.00932699 0.0350954 0.0348322 0.0715723 
0.0715259 0.0713502 0.0705048 0.00907334 0.0597108 
0.0712739 0.0300115 0.0451252 0.0549555 0.0649064 
0.00861035 0.0088934 0.00869946 0.0447738 0.0149144 
0.0249305 0.0497446 0.0198043 0.0500681 0.0147265 
0.0401403 0.0598519 0.00872775 0.00892442 0.0673498 
0.0620638 0.0675375 0.0569997 0.0371363 0.0274877 
0.0618099 0.0428263 0.0273463 0.0172202 0.0135816 
0.0131838 0.0526509 0.0574045 0.012934 0.0171093 
0.0224977 0.0668898 0.0471062 0.0521022 0.0222027 
0.0421173 0.0667477 0.0322049 0.0377877 0.0477772 
0.0672032 0.0672967 0.0125873 0.0326886 0.0133913 
0.0126127 0.0553815 0.0545468 0.029505 0.0639314 
0.0355296 0.0206245 0.0343814 0.018902 0.0598939 
0.0171158 0.044375 0.045627 0.0303415 0.0636227 
0.0494517 0.0249563 0.0393434 0.0593812 0.0406116 
0.0505902 0.0179067 0.0628895 0.0627087 0.0248495 
0.0632608 0.0264799 0.0216868 0.0384827 0.0518159 
0.0229921 0.0333925 0.0282376 0.0364318 0.0414788 
0.0537051 0.0314226 0.0486292 0.0575983 0.0586286 
0.0435586 0.0465816 0.0081473 0.0125732 0.0174806 
0.0224555 0.0274608 0.0324548 0.0374453 0.0424316 
0.0474106 0.052388 0.0573832 0.0624262 0.0675113 
0.0723628 0.0766016 0.0755929 0.0758181 0.0757479 
0.0756651 0.0756727 0.075762 0.0759084 0.0755402 
0.0757835 0.00706306 0.0174327 0.0274061 0.0373642 
0.0473437 0.0573189 0.067246 0.00433442 0.0043048 
0.0043728 0.00443378 0.00442976 0.00441256 0.00437765 
0.00413416 0.00477061 0.0756854 0.075533 0.0758591 
0.0756662 0.0756956 0.0758628 0.0757848 0.0323886 
0.0124082 0.0224161 0.0423477 0.0523318 0.0623034 
0.0717394 0.00443722 0.00432756 0.00441469 0.00443529 
0.00442723 0.00439014 0.0043028 0.0713464 0.0148837 
0.0198814 0.024943 0.0299255 0.0349034 0.0398819 
0.0448425 0.0497813 0.0547125 0.0596866 0.0648307 
0.0705576 0.0715175 0.0713392 0.0713332 0.0704117 
0.0248006 0.0715865 0.071576 0.07185 0.0546145 
0.0197955 0.0714056 0.0446616 0.0397023 0.0148649 
0.034719 0.0718737 0.00929294 0.0646831 0.00859322 
0.0713937 0.0087979 0.00887377 0.00885766 0.00881748 
0.00881046 0.0718415 0.00996794 0.071332 0.049632 
0.0713897 0.0297634 0.0595844 0.00854071 0.00886314 
0.00869224 0.00886515 0.00885463 0.00875821 0.00857761 
0.00796572 0.0682611 0.0225184 0.0274222 0.032357 
0.0373388 0.0422931 0.0472065 0.0520683 0.0568856 
0.0617147 0.0666581 0.0670182 0.0130232 0.0220927 
0.0131941 0.0468895 0.0671421 0.0133069 0.0671176 
0.0129276 0.0666708 0.0677945 0.017043 0.0370156 
0.0675355 0.0616886 0.0320345 0.0132986 0.0669974 
0.0133201 0.0133118 0.0128162 0.0567737 0.0518293 
0.0670219 0.0270931 0.0680608 0.0419698 0.0136707 
0.0669935 0.0670135 0.0171757 0.0131492 0.0125506 
0.0133396 0.0133028 0.0122023 0.0675304 0.0297541 
0.0347961 0.0397496 0.0446635 0.0495121 0.054255 
0.0588564 0.0633492 0.0242852 0.0628512 0.0627499 
0.0177389 0.0177718 0.0178363 0.0178074 0.0193199 
0.0625335 0.0627142 0.017857 0.0169456 0.0342793 
0.0627075 0.0626619 0.0639943 0.0174223 0.0169668 
0.0588243 0.017757 0.0292436 0.0647308 0.0441502 
0.0178329 0.0205976 0.0174859 0.0637711 0.0626877 
0.0629668 0.0392592 0.0249284 0.0537802 0.0215497 
0.0372264 0.0421197 0.0469915 0.0518164 0.0564555 
0.0608207 0.0313785 0.0261956 0.0489322 0.0415281 
0.0212899 0.0591826 0.0575479 0.0583134 0.0267029 
0.0221204 0.0222809 0.0584853 0.0584741 0.0585421 
0.022342 0.0463155 0.0365078 0.0505833 0.058324 
0.0322538 0.0222691 0.0583706 0.0224499 0.0543419 
0.0222023 0.0225196 0.0224769 0.0438969 0.0279031 
0.0444054 0.0493648 0.0347264 0.051807 0.053786 
0.0266568 0.053924 0.0338465 0.0268774 0.0389079 
0.0491998 0.0543431 0.0395204 0.0267594 0.0540075 
0.030308 0.054476 0.0267536 0.0543147 0.0266024 
0.0366857 0.0276973 0.0496161 0.0541357 0.0319603 
0.0466526 0.0416697 0.0488137 0.0316057 0.0499438 
0.0497438 0.0305903 0.0411969 0.0314235 0.0452492 
0.0507574 0.0313837 0.0369063 0.0502615 0.0336304 
0.035689 0.0455313 0.0438632 0.0408287 0.0452902 
0.0309644 0.0465264 0.0387841 0.045836 0.0366194 
0.0355994 0.0417534 0.0407401 0.0411759 
9.16287e-05 8.07892e-05 7.85616e-05 7.88946e-05 
7.92194e-05 7.90577e-05 7.90526e-05 7.81716e-05 7.88404e-05 
0.000117496 0.000123066 0.000125962 0.000125809 0.000124888 
0.000110018 0.000122625 0.000124931 0.000124719 0.000125937 
0.00012623 0.000126493 0.000124223 0.000134765 0.000122315 
0.000124076 0.000123588 0.000124205 0.000109582 0.000100868 
0.000121871 0.000105247 8.00866e-05 0.000104782 7.86512e-05 
7.9138e-05 7.9174e-05 7.89502e-05 7.85193e-05 0.000104697 
7.72925e-05 0.000123732 0.000126109 0.000124263 0.000124781 
0.000125346 0.000123007 0.000125522 0.00010565 0.000116564 
0.00012273 0.000124684 0.000125574 0.000126192 0.000125712 
0.000125855 0.000126415 0.000125698 0.00012379 0.000123663 
0.000129182 0.000104774 0.000126556 0.000104874 0.000104674 
0.000104687 0.00010447 0.000100921 0.000122664 0.000122166 
0.000121185 0.000121445 0.00012144 0.000121609 0.000122919 
0.000123992 0.000123743 0.000119897 0.000102743 0.000121506 
0.000121446 0.000121561 0.000121621 0.000122162 0.000124251 
0.000123768 0.000104748 0.000105152 0.000122117 0.00012198 
0.000122651 0.000121742 0.000121466 0.000116853 0.000124948 
0.000110109 0.000110105 0.000108834 0.000124583 0.000109894 
0.000127994 0.000130015 0.000126654 0.000109545 0.000132436 
0.000105105 0.000125275 0.000124814 0.000122768 0.000123454 
0.000125173 0.000124479 0.000124458 0.000129961 0.00012272 
0.000109704 0.000131239 0.000106471 0.00012616 0.000117045 
0.000126191 0.000121275 0.000126916 0.000125937 0.000127236 
0.000123767 0.000131121 0.00014338 0.000123827 0.000123115 
0.000110022 0.000131905 0.000115516 0.000131688 0.000107723 
0.000133446 0.000110249 0.000131628 0.000125515 0.000122003 
0.000122287 0.000125511 0.000133803 0.000113702 0.000132092 
0.00012205 0.000121478 0.000121305 0.000131409 0.000120922 
0.000133 0.000131908 0.000131868 0.000124618 0.000121511 
0.000126838 0.000127429 0.000126763 0.000121698 0.000120847 
0.000126977 0.000117495 0.000116298 0.000123897 0.000129064 
0.000118197 0.000130167 0.000123829 0.000122161 0.000124494 
0.000124858 0.000121266 0.00012515 0.000121331 0.00012137 
0.000121444 0.000122902 0.000123099 0.000129713 0.000126461 
0.000117829 0.00011843 0.00012606 0.000116548 0.000127915 
0.000126948 0.000116415 0.000122212 0.000123724 0.000123717 
0.000126759 0.000127006 0.000127794 0.000123192 0.000123799 
0.000125687 0.000126343 0.000112723 0.00013235 0.000130759 
0.00012489 0.000128464 0.000118323 0.000117974 0.000130252 
0.000123971 0.000120414 0.000118233 0.000130089 0.000118622 
0.000121323 0.000126772 0.000118002 0.000130205 0.000127155 
0.000120985 0.000126983 0.000121484 0.000124607 0.000124277 
0.000126023 0.000121196 0.000125308 0.000122695 0.000121281 
0.000130063 0.000129907 0.000122236 0.000120128 0.000129363 
0.000138231 0.000126859 0.000124006 0.000122109 0.000124291 
0.000117137 0.00012695 0.000123377 0.000132013 0.000122869 
0.000116017 0.000120853 0.000120915 0.000130099 0.000117122 
0.000120993 0.000127041 0.000118105 0.000130733 0.000119495 
0.000135455 0.000126539 0.000127691 0.000115024 0.000119836 
0.000128649 0.000114678 0.000128065 0.000120721 0.000123758 
0.000123964 0.000119232 0.000127096 0.000127835 0.000120405 
0.000121332 0.000112669 0.000118703 0.000130126 0.000123486 
0.000126157 0.000120192 0.000119614 0.000128834 0.000116107 
0.000126834 0.000131689 0.000127564 0.000120493 0.000126883 
0.000120146 0.000118707 0.000127904 0.000123724 0.000124472 
0.000134232 0.000124742 0.000125471 0.000120476 0.00011916 
0.000124317 0.000120759 0.000119182 0.00011944 0.000114579 
0.000120028 0.000125112 0.000131505 0.000129305 0.000130588 
0.000120311 0.000119085 0.000118549 0.000123785 0.000132663 
0.000130051 0.000125436 0.00012816 0.00012219 0.000127865 
0.00012895 0.000131085 0.000129378 0.00011988 0.000130342 
0.000120927 0.000119412 0.000121061 0.000120212 0.000128008 
0.000124087 0.000122298 0.000126888 0.000126833 0.000119379 
0.000128126 0.000125217 0.000126398 0.000122018 0.00011827 
0.00011868 0.00012917 0.000127468 0.000127315 0.000124128 
0.00011985 0.000128769 0.000119231 0.000130407 0.000119552 
0.000117465 0.000131399 0.00012503 0.000127911 0.000128313 
0.000119235 0.000128248 0.000128651 0.000119012 0.000119719 
0.000121921 0.000120239 0.000128075 0.000126636 0.000119202 
0.000125408 0.000121464 0.000137781 0.000116828 0.000113595 
0.000125034 0.000121816 0.000130612 0.000117935 0.000127733 
0.000118008 0.000131793 0.000115654 0.000132146 0.000115769 
0.000131973 0.000115968 0.000131824 0.000116191 0.00013158 
0.000118446 0.000131101 0.000118853 0.000131172 0.000118801 
0.000131451 0.000118184 0.000132453 0.000116813 0.000130671 
0.000112188 0.000114789 0.00012691 0.000117679 0.000123548 
0.000126177 0.000126023 0.00012604 0.00012613 0.000125772 
0.000125248 0.000126137 0.000126142 0.000125419 0.000133916 
0.000109674 0.000124657 0.000127602 0.000129412 0.000126936 
0.000126575 0.000125818 0.000124851 0.000119619 0.000126291 
0.000124209 0.000123921 0.000123647 0.00012336 0.000123356 
0.000123992 0.000127597 0.000130578 0.000125828 0.000139038 
0.000134494 0.000122591 0.000125973 0.000124455 0.000125146 
0.000125702 0.000126276 0.000122919 0.000126107 0.000126039 
0.000125392 0.000125536 0.0001148 0.000132112 0.000123408 
0.000127409 0.000127238 0.000122665 0.00012676 0.000126181 
0.00012565 0.00012684 0.000125799 0.000124099 0.000123804 
0.000123486 0.000123305 0.000123574 0.000125009 0.00012154 
0.000112967 0.000123046 0.000123237 0.000124158 0.00012257 
0.000121591 0.000122422 0.000122708 0.000123316 0.000124044 
0.000123453 0.000124037 0.000123908 0.000124012 0.000123773 
0.000122665 0.000123852 0.000123027 0.000123752 0.000121755 
0.000123928 0.000123954 0.000123936 0.000123923 0.000123641 
0.000120816 0.000120078 0.000123695 0.000122183 0.000123072 
0.000122272 0.000120995 0.000122473 0.000121981 0.000118665 
0.00012486 0.000120857 0.00011699 0.000131223 0.00011598 
0.000132962 0.000116348 0.000132526 0.000116271 0.000131783 
0.000116325 0.00013171 0.00011658 0.000131416 0.000116935 
0.000130938 0.000117496 0.000130425 0.000117776 0.000130263 
0.000121975 0.00013111 0.000118688 0.000133869 0.000128576 
0.000125349 0.000124861 0.000123293 0.000124697 0.000125214 
0.000131509 0.000128729 0.000124126 0.00012497 0.000124075 
0.00012494 0.00012625 0.000121717 0.000124592 0.000124737 
0.000126056 0.000125953 0.000122447 0.000127575 0.000121518 
0.000125835 0.000122271 0.000125379 0.000120992 0.00012551 
0.000124078 0.000124265 0.00013204 0.000124697 0.00012315 
0.000134425 0.00012426 0.00012412 0.000123824 0.000123886 
0.00012414 0.000123685 0.000124356 0.00013372 0.000119948 
0.000121543 0.000124758 0.00012338 0.000133888 0.000125577 
0.000122844 0.000113114 0.000123655 0.000135329 0.000125302 
0.000121148 0.000125697 0.000131785 0.000123442 0.000122298 
0.000113056 0.000130675 0.000116873 0.000122627 0.000122666 
0.000118144 0.000126822 0.000125747 0.000124335 0.000123901 
0.000124252 0.000124247 0.000124298 0.000124 0.000124339 
0.000123974 0.000123826 0.000123932 0.000123274 0.000124917 
0.000124412 0.000116029 0.000138197 0.000122077 0.000123774 
0.00012425 0.000124018 0.000116854 0.000124513 0.000124221 
0.000122566 0.000117322 0.000124425 0.000124024 0.000124147 
0.000126497 0.000121557 0.00012139 0.000124376 0.000116254 
0.000127042 0.000116276 0.000131692 0.000116549 0.000131419 
0.000117072 0.00013083 0.000117731 0.000129898 0.000118327 
0.000128736 0.000118726 0.000127654 0.000120626 0.000121154 
0.000126553 0.000125084 0.000123469 0.000125941 0.00012378 
0.000123162 0.000125991 0.000124585 0.000123619 0.000123748 
0.000124587 0.000124357 0.000130305 0.000129245 0.000133431 
0.000122956 0.000118483 0.000125101 0.000121627 0.000125647 
0.000124798 0.000116215 0.00012146 0.000124311 0.000124887 
0.000125125 0.000122438 0.00012436 0.000124687 0.000124066 
0.000123569 0.000124477 0.000124018 0.000124644 0.000123759 
0.000124532 0.000125255 0.000123174 0.000123575 0.000124876 
0.000123165 0.000124232 0.000122508 0.000123078 0.000123505 
0.000125798 0.00012292 0.000122018 0.000130036 0.000123176 
0.000125037 0.000122801 0.000123576 0.000123266 0.000124565 
0.000122652 0.000121271 0.000124334 0.000117448 0.000123981 
0.000124277 0.000123612 0.000123835 0.000132513 0.00012379 
0.00012731 0.000123258 0.000121534 0.000115857 0.000123925 
0.000124076 0.000124989 0.000123349 0.000123664 0.000129082 
0.000124491 0.00012615 0.000124449 0.000128488 0.000116433 
0.000117226 0.000116109 0.000131684 0.000116522 0.000131378 
0.000117121 0.000130923 0.000117891 0.000130067 0.000118803 
0.000128566 0.000119501 0.000126436 0.000118584 0.000122637 
0.000124209 0.000125042 0.000125098 0.000127898 0.000125055 
0.000124529 0.000123352 0.000124254 0.000123351 0.000119151 
0.00012671 0.000122224 0.000125501 0.000123807 0.000124351 
0.000124503 0.000124042 0.000123585 0.000126185 0.000124867 
0.000124778 0.000123576 0.000124677 0.000123889 0.000123883 
0.00012444 0.000126207 0.000124555 0.000124993 0.000119371 
0.000124409 0.000125689 0.000117502 0.000120998 0.00012379 
0.00012357 0.00012454 0.000123897 0.000122538 0.000121815 
0.000114987 0.000125931 0.000123048 0.000124858 0.000115092 
0.000122641 0.000123886 0.000129139 0.000125438 0.000118163 
0.000125495 0.00012291 0.000118384 0.00012518 0.000121417 
0.000123437 0.000124346 0.00012149 0.000134312 0.000125596 
0.000121097 0.000127095 0.000123936 0.000123373 0.000122621 
0.000122714 0.00012132 0.000120513 0.000123572 0.000130549 
0.000116105 0.000117135 0.000130969 0.000117934 0.000130427 
0.000118506 0.000130536 0.000119336 0.000128042 0.000119416 
0.000122047 0.000126855 0.000123164 0.000122262 0.000122524 
0.000123003 0.000126721 0.000129601 0.000125991 0.000123746 
0.000139969 0.000127534 0.0001266 0.00013012 0.000128938 
0.000126595 0.000116155 0.000124471 0.000126911 0.000128978 
0.000125016 0.000118538 0.000122708 0.000125036 0.000127171 
0.000125251 0.000124932 0.000125158 0.000123768 0.000121502 
0.000122042 0.000125189 0.000132893 0.000125675 0.000112969 
0.000136398 0.00012512 0.000113359 0.000134993 0.000122722 
0.000125414 0.000126156 0.000119753 0.000125209 0.000114672 
0.000124294 0.000123743 0.000125057 0.000123883 0.000124305 
0.000124847 0.000121022 0.000127406 0.000131426 0.000123306 
0.000125299 0.000122218 0.000122471 0.000120575 0.000127017 
0.000124486 0.000122624 0.000123483 0.000133772 0.00013237 
0.000125465 0.00012357 0.000124372 0.000116497 0.000118331 
0.000122863 0.000130246 0.00011859 0.000120534 0.000130014 
0.000123798 0.000122356 0.000122158 0.000118569 0.000124101 
0.000126197 0.000118432 0.00012693 0.00012385 0.000122236 
0.000127702 0.000121349 0.000123238 0.000124838 0.000118574 
0.000114282 0.000120576 0.000134571 0.000114517 0.000127287 
0.000117697 0.000123389 0.000126105 0.000132923 0.000114671 
0.000130104 0.00011997 0.000123296 0.000123493 0.000119864 
0.000119668 0.000123925 0.000120335 0.00012563 0.000122795 
0.000125184 0.000124889 0.000125191 0.000122944 0.000126624 
0.000130552 0.000128268 0.000120589 0.000118201 0.00012888 
0.000127781 0.000124103 0.000131373 0.00012529 0.000126849 
0.000118436 0.000119988 0.000129727 0.000128823 0.00012789 
0.000123837 0.000109911 0.000125469 0.000132959 0.000128245 
0.00012756 0.000127538 0.000123378 0.000126071 0.000126796 
0.000122836 0.000128289 0.000132076 0.000133122 0.000122068 
0.000117598 0.000135961 0.000124875 0.000116299 0.000123157 
0.000123331 0.000118565 0.000124683 0.00012634 0.000131195 
0.000122247 0.000111401 0.000122772 0.000125881 0.000120093 
0.000129795 0.000125562 0.000124842 0.000130588 0.000119208 
0.000127405 0.00011904 0.00012164 0.000120409 0.000132155 
0.000127485 0.00012842 0.000119659 0.000121539 0.000114976 
0.000113515 0.000128346 0.000116531 0.000128522 0.000111297 
0.000130954 0.000120325 0.000118827 0.000121598 0.000127724 
0.000123156 0.000114483 0.000121555 0.000121647 0.000131765 
0.000122117 0.000122731 0.000127699 0.000126316 0.000127985 
0.000122838 0.000128928 0.000128079 0.000120606 0.000127704 
0.000131691 0.000136693 0.000128338 0.0001216 0.000117972 
0.000118551 0.000124677 0.000112884 0.000128048 0.000127268 
0.000125727 0.000127257 
808.733 1015.59 1017.27 1016.1 
1016.51 1016.05 1015.97 1015.73 1025.51 
904.834 888.514 885.873 884.077 889.896 
1095.13 1098.91 1098.96 1099.37 1099.82 
1099.82 1099.66 1099.39 1054.66 1095.44 
1098.2 1098.17 1098.26 1050.07 1076.5 
1098.45 1078.44 1019.22 1078.69 1015.6 
1016.44 1016.33 1015.79 1017.96 1079.38 
1015.63 1046.69 883.626 1049.4 892.183 
1048.6 1046.01 886.473 1079.44 882.78 
1099.49 1099.4 1099.79 1099.84 1099.47 
1099.6 1099.83 1098.51 1098.19 1098.16 
1098.57 1079.5 1044.08 1079.47 1079.39 
1079.36 1079.48 1076.49 1046.52 1097.66 
1097.38 1097.42 1097.51 1097.59 1097.74 
1098.31 1098.28 1097.64 1078.46 1097.43 
1097.43 1097.52 1097.64 1097.99 1098.37 
1098.28 1079.48 1079.45 1097.6 1097.75 
1047.38 1097.78 1097.6 1093.4 1098.86 
1091.63 1091.68 1091.22 1095.39 1091.51 
1096.1 1096.05 1099.26 1091.45 1099.76 
1085.02 1095.44 1095.41 1097.87 1098 
1095.45 1098.17 1096.56 1099.13 1098.16 
1091.6 1099.55 1073.37 1095.89 1096.57 
1099.2 1097.32 1099.29 1098.96 1099.3 
1098.11 1096.2 1101.66 1098.29 1098.08 
1091.61 1099.73 1092.68 1099.35 1090.86 
1100.36 1091.69 1099.68 1098.94 1097.53 
1097.46 1096.26 1098.31 1096.01 1099.58 
1097.71 1098.21 1094.49 1099.67 1097.28 
1099.92 1099.68 1099.49 1098.52 1097.36 
1099.22 1099.26 1099.27 1097.49 1097.67 
1099.16 1097.11 1096.95 1098.27 1099.06 
1096.83 1099.07 1098.34 1097.6 1098.44 
1098.48 1097.31 1098.54 1097.49 1097.31 
1097.52 1098.16 1098.14 1099.73 1098.71 
1096.34 1096.38 1099.17 1096.4 1099.92 
1099.31 1095.82 1097.05 1098.35 1098.22 
1098.8 1099.25 1099.38 1097.82 1098.31 
1098.65 1099.01 1094.78 1099.75 1100.22 
1098.42 1098.82 1096.34 1096.25 1100.13 
1098.64 1097.21 1096.33 1099.97 1097.12 
1098.01 1099.31 1096.27 1099.95 1099.35 
1097.2 1099.3 1097.28 1098.4 1098.52 
1098.58 1097.21 1098.74 1098 1097.53 
1100.02 1099.92 1097.55 1097.53 1100.14 
1101.2 1099.3 1097.62 1097.45 1098.51 
1096.69 1098.29 1098.28 1099.76 1097.85 
1097.06 1097.23 1097.19 1099.53 1097.22 
1098.01 1099.24 1096.11 1099.62 1096.75 
1100.47 1098.34 1099.47 1096.91 1096.82 
1099.54 1096.22 1099.28 1096.94 1097.72 
1098.06 1096.64 1099.37 1099.48 1097.04 
1097.27 1095.7 1096.44 1099.97 1099.07 
1099.23 1097.08 1096.77 1099.67 1095.69 
1098.37 1099.6 1099.45 1096.99 1099.29 
1096.8 1097.6 1099.03 1098.17 1098.55 
1099.89 1098.75 1098.54 1097 1097.55 
1098.56 1097.27 1097.32 1097.23 1096.53 
1097.97 1098.81 1099.93 1099.81 1099.36 
1096.91 1097.31 1096.8 1097.76 1100.01 
1099.05 1098.4 1099.6 1097.39 1098.63 
1099.4 1100.07 1099.79 1096.77 1099.97 
1097.05 1096.62 1097.19 1096.97 1099.71 
1098.93 1097.49 1099.34 1099.41 1096.69 
1098.76 1099.09 1099.06 1098.55 1096.6 
1097.03 1099.61 1099.61 1099.46 1098.9 
1096.86 1099.69 1096.61 1100.3 1096.72 
1096.82 1099.36 1098.1 1099.68 1099.74 
1098.11 1099.83 1099.97 1096.7 1096.73 
1097.34 1097.05 1098.51 1099.25 1096.55 
1099.24 1097.55 1100.66 1096.64 1095.07 
1098.15 1097.39 1100.16 1096.3 1099.89 
1096.3 1100.65 1095.69 1100.66 1095.74 
1100.52 1095.81 1100.48 1095.88 1100.42 
1096.46 1100.32 1096.57 1100.36 1096.46 
1100.37 1096.17 1100.08 1096.1 1100.77 
1031.63 847.158 1094.36 905.974 889.212 
882.305 884.424 887.097 886.851 883.797 
879.037 890.74 882.063 1046.3 1034.36 
1095 1098.11 1098.53 1098.6 1098.44 
1098.39 1098.27 1098.05 1097.89 1098.44 
1098.26 1098.24 1098.2 1098.15 1098.15 
1098.25 1098.69 1099.03 1098.54 1101 
1055.13 1046.69 886.433 1049.34 891.048 
1047.64 880.882 1047.22 887.078 886.042 
880.441 883.333 1095.27 1099.24 1045.67 
1098.5 1098.47 1097.54 1098.42 1098.33 
1098.24 1098.54 1098.59 1098.27 1098.23 
1098.17 1098.14 1098.18 1098.42 1047.97 
1096.39 1047.34 1046.99 1045.04 1045.43 
1097.38 1097.55 1097.6 1097.68 1097.75 
1098.23 1098.35 1098.32 1098.34 1098.3 
1098.12 1044.37 1097.64 1097.75 1097.94 
1098.33 1098.33 1098.33 1098.33 1098.28 
1097.78 1097.42 1046.22 1045.76 1047.28 
1097.43 1097.33 1097.57 1097.96 1096.79 
1095.56 1097.08 1095.96 1100.31 1095.74 
1099.86 1095.89 1099.92 1095.89 1100.48 
1095.91 1100.46 1095.99 1100.39 1096.11 
1100.27 1096.31 1100.12 1096.4 1099.98 
1097.45 1100.21 1095.84 1100.13 1093.75 
1095.26 1095.59 1097.96 1095.58 1096.75 
1099.42 1099.17 1095.08 1095.53 1095.07 
1098.84 1099.04 1097.56 1095.39 1098.21 
1099.02 1099 1097.71 1099.23 1097.51 
1098.99 1097.67 1095.2 1097.55 1098.9 
1098.65 1098.34 1096.41 1095.57 1097.94 
1100.2 1098.35 1098.33 1098.28 1098.3 
1098.38 1094.79 1098.13 1100.21 1097.06 
1097.44 1095.58 1097.98 1099.56 1098.95 
1097.79 1095.86 1098.02 1099.48 1098.27 
1097.56 1096.04 1099.83 1098 1097.78 
1094.94 1100.71 1097.06 1097.73 1097.77 
1096.75 1096.53 1098.38 1098.73 1098.14 
1098.39 1098.36 1098.35 1098.35 1098.41 
1098.31 1098.29 1098.28 1097.84 1098.57 
1097.84 1097.17 1101.35 1098.06 1098.3 
1098.38 1098.35 1096.6 1098.41 1098.37 
1097.7 1097.09 1098.42 1098.35 1098.37 
1098.39 1097.59 1097.43 1098.84 1095.91 
1099.66 1095.89 1100.47 1095.97 1100.39 
1096.12 1100.27 1096.34 1100.08 1096.59 
1099.79 1096.91 1099.46 1097.5 1098.17 
1099.16 1098.65 1098.09 1099 1098.3 
1098.2 1099.01 1098.65 1098.27 1098.3 
1098.56 1098.34 1099.25 1100.01 1100 
1098.2 1097.02 1098.81 1097.64 1098.95 
1098.79 1096.78 1097.74 1098.74 1098.19 
1098.86 1097.71 1098.38 1098.58 1098.32 
1098.24 1098.42 1098.35 1098.46 1098.63 
1098.01 1098.89 1097.9 1097.95 1098.6 
1098.05 1099.83 1097.75 1098.08 1098 
1098.98 1097.82 1097.71 1099.22 1098.77 
1098.65 1097.98 1098.13 1098.05 1098.59 
1097.76 1096.99 1098.36 1096.76 1098.34 
1098.37 1098.13 1098.31 1100.14 1098.27 
1099.15 1097.57 1097.51 1096.95 1098.37 
1098.35 1098.54 1097.92 1098.17 1099.31 
1098.44 1098.64 1098.42 1099.05 1096.8 
1096.08 1095.86 1100.54 1095.96 1100.41 
1096.11 1100.29 1096.32 1100.13 1096.62 
1099.92 1096.96 1099.54 1097.01 1098.46 
1099.02 1098.82 1098.64 1099.02 1098.62 
1098.41 1098.19 1098.37 1098.26 1097.66 
1099.16 1097.74 1098.79 1098.23 1098.57 
1098.41 1098.36 1098.27 1098.11 1098.8 
1098.58 1098.13 1098.59 1098.16 1098.18 
1098.59 1098.32 1098.37 1098.54 1097.72 
1098.18 1098.63 1097.25 1097.41 1098.26 
1098.26 1098.43 1098.61 1097.74 1097.42 
1096.31 1098.97 1098.16 1098.48 1096.96 
1098.12 1098.35 1099.17 1098.6 1097.24 
1098.72 1097.83 1097.56 1098.54 1098.05 
1098.64 1098.21 1098.24 1099.95 1098.92 
1097.18 1099.09 1098.66 1097.99 1097.94 
1097.78 1097.68 1097.53 1097.91 1099.16 
1095.81 1096.11 1100.2 1096.26 1100.12 
1096.37 1099.6 1096.57 1100.4 1096.75 
1097.73 1098.75 1098.45 1097.76 1098.31 
1097.88 1099.14 1099.29 1098.88 1098.02 
1101.34 1098.76 1099.25 1099.29 1098.85 
1098.98 1096.54 1097.83 1098.2 1099.25 
1098.48 1096.78 1098.06 1099.12 1098.58 
1098.32 1098.59 1098.61 1098.17 1097.7 
1098.32 1098.42 1099.97 1098.73 1094.67 
1100.25 1098.83 1094.45 1100.07 1097.79 
1098.77 1098.59 1097.73 1098.71 1095.43 
1098.36 1098.25 1098.63 1098.19 1098.38 
1098.48 1098.03 1098.54 1099.55 1098.17 
1098.56 1098.08 1097.74 1097.56 1098.83 
1098.44 1098.07 1098.06 1100.12 1099.83 
1098.61 1098.23 1100.07 1096.45 1096.44 
1097.69 1100.3 1097.44 1097.32 1098.89 
1098.15 1098.88 1098.18 1097.17 1098.36 
1098.82 1097.33 1099.07 1098.55 1097.87 