
TITLE     = "DG2D to Tecplot"
VARIABLES = "X"
"Y"
"RHO"
"U"
"V"
"VELOCITY_MAG"
"P"
"T"
"THETA1"
"THETA2"
ZONE T="ZONE 1"
STRANDID=0
ZONETYPE=FEQuadrilateral
DATAPACKING=BLOCK
VARLOCATION=([3-10]=CELLCENTERED)
DT=(SINGLE SINGLE SINGLE SINGLE SINGLE SINGLE SINGLE SINGLE SINGLE SINGLE)

Nodes=548, Elements=1006
0.05 0.05 -3.88578e-16 -3.88578e-16 
0.14 0.14 -3.88578e-16 -3.88578e-16 -3.88578e-16 
-3.88578e-16 -3.88578e-16 -3.88578e-16 -3.88578e-16 -3.88578e-16 
-3.88578e-16 -3.88578e-16 -3.88578e-16 -3.88578e-16 -3.88578e-16 
-3.88578e-16 -3.88578e-16 0.045 0.04 0.035 
0.03 0.025 0.02 0.015 0.01 
0.005 0.05 0.05 0.05 0.05 
0.05 0.05 0.05 0.05 0.05 
0.05 0.05 0.05 0.05 0.05 
0.05 0.005 0.01 0.015 0.02 
0.025 0.03 0.035 0.04 0.045 
0.135 0.13 0.125 0.12 0.115 
0.11 0.105 0.1 0.095 0.09 
0.085 0.08 0.075 0.07 0.065 
0.06 0.055 0.14 0.14 0.14 
0.14 0.14 0.14 0.14 0.14 
0.14 0.14 0.14 0.14 0.14 
0.14 0.14 0.055 0.06 0.065 
0.07 0.075 0.08 0.085 0.09 
0.095 0.1 0.105 0.11 0.115 
0.12 0.125 0.13 0.135 0.00441872 
0.00441736 0.004436 0.00447963 0.00443661 0.00442809 
0.00446324 0.0431093 0.0326026 0.0225849 0.012701 
0.0456369 0.0455014 0.0454191 0.0454932 0.0455855 
0.045728 0.0455948 0.00686385 0.0173913 0.0275096 
0.0374057 0.00459018 0.00438888 0.00447111 0.00446296 
0.00440999 0.00444058 0.0041588 0.0275527 0.0378107 
0.0176153 0.00824326 0.0454589 0.0454265 0.04545 
0.0455365 0.045657 0.0457159 0.0458195 0.0121629 
0.0224825 0.0324913 0.0418324 0.00884743 0.0407955 
0.00896493 0.00883337 0.00884395 0.0202569 0.0089191 
0.00960327 0.00913755 0.0409532 0.00891496 0.0299881 
0.0251115 0.0351123 0.0407922 0.0406239 0.00869536 
0.0152134 0.040863 0.0411027 0.0413788 0.0414018 
0.0147973 0.0250314 0.035068 0.00897282 0.00884337 
0.00878903 0.00894468 0.0408949 0.0412111 0.0411742 
0.0410198 0.0415391 0.0199257 0.0300758 0.0181923 
0.0375368 0.0321532 0.0131811 0.0134605 0.0361954 
0.01281 0.0365476 0.0132023 0.0138665 0.0276681 
0.0224389 0.0368659 0.0372007 0.01732 0.0364307 
0.0130739 0.0369863 0.013514 0.0134359 0.0360531 
0.0135036 0.0133544 0.0133615 0.0364685 0.0366656 
0.0228464 0.0274905 0.0372549 0.0363487 0.0327417 
0.0127553 0.0325643 0.0180184 0.0177933 0.0339523 
0.0318517 0.0170449 0.0179754 0.030792 0.0332087 
0.0195711 0.0181048 0.0320417 0.0316947 0.0164669 
0.0181104 0.0313771 0.0180654 0.0173838 0.0319544 
0.0321959 0.0248135 0.0206575 0.0253095 0.0174691 
0.029892 0.0221651 0.0214055 0.0273201 0.0228112 
0.0263727 0.0271974 0.0269534 0.0226528 0.0227146 
0.0276684 0.0225027 0.0274642 0.0228787 0.0284579 
0.027379 0.0227541 0.0541483 0.054455 0.0544357 
0.0544198 0.0543809 0.0543673 0.0543567 0.0543501 
0.0543497 0.0543572 0.0543884 0.0544802 0.0546144 
0.0542672 0.0534098 0.133037 0.122575 0.112549 
0.102561 0.0925489 0.0826102 0.0726712 0.0625365 
0.057671 0.135875 0.135809 0.135651 0.135618 
0.135581 0.135408 0.135325 0.0568516 0.0673419 
0.07744 0.0874743 0.0975143 0.107513 0.117415 
0.126932 0.131627 0.107566 0.127754 0.11752 
0.0975524 0.0875651 0.077664 0.0676187 0.135623 
0.135945 0.135709 0.135614 0.135497 0.13535 
0.135691 0.0621381 0.0724076 0.0824555 0.0924955 
0.102523 0.11248 0.122242 0.0900736 0.0588264 
0.0589122 0.058766 0.0587489 0.0587265 0.0587067 
0.058704 0.0587099 0.0587266 0.0587989 0.0590518 
0.0596068 0.125008 0.095086 0.105152 0.130493 
0.131338 0.0802277 0.115121 0.0704073 0.130889 
0.131483 0.0851154 0.131225 0.131239 0.13172 
0.131219 0.119963 0.0591113 0.13068 0.0698001 
0.110174 0.0798781 0.0899655 0.100058 0.110037 
0.119878 0.075371 0.132083 0.100117 0.131105 
0.0652927 0.131244 0.130709 0.0647365 0.0849132 
0.0748443 0.0950184 0.105071 0.114964 0.124499 
0.128582 0.122093 0.0630798 0.0631493 0.063128 
0.0630706 0.0630644 0.0630797 0.0630909 0.0630964 
0.063189 0.0637306 0.092579 0.11746 0.127108 
0.112589 0.126825 0.112912 0.107676 0.082599 
0.0722022 0.126137 0.068421 0.127289 0.126817 
0.117795 0.125898 0.126773 0.0822879 0.102721 
0.0924919 0.102661 0.0672228 0.126001 0.126534 
0.0976452 0.126867 0.0731853 0.126866 0.122837 
0.0875439 0.107828 0.0638334 0.0772251 0.0627122 
0.0873865 0.0975919 0.12775 0.077822 0.0676322 
0.0674369 0.0674204 0.0674561 0.0675016 0.0675031 
0.0674343 0.0674297 0.122561 0.0798409 0.0951369 
0.0795371 0.100256 0.0899086 0.110402 0.123089 
0.0848519 0.110663 0.0847166 0.119458 0.122296 
0.100234 0.105388 0.121375 0.0744351 0.0694379 
0.120161 0.0950916 0.122245 0.0711932 0.122508 
0.105386 0.0670457 0.115171 0.0752135 0.0900238 
0.116093 0.122451 0.0675702 0.12169 0.0714485 
0.0717484 0.0718188 0.0719091 0.0719968 0.0719489 
0.0716316 0.11751 0.11764 0.122459 0.118168 
0.118519 0.0762931 0.081625 0.0874389 0.0727114 
0.0764926 0.103046 0.113636 0.0976908 0.0926443 
0.113589 0.118124 0.117926 0.118338 0.108093 
0.0717609 0.0925864 0.102799 0.0818851 0.116227 
0.0977945 0.108374 0.087233 0.113929 0.111975 
0.076274 0.0764027 0.0760328 0.0808963 0.085436 
0.0786805 0.110714 0.113032 0.105925 0.113883 
0.11336 0.0766009 0.0761753 0.0953988 0.105258 
0.0758316 0.0903531 0.0901648 0.0951475 0.100543 
0.080513 0.0843652 0.107497 0.100095 0.107818 
0.0806835 0.080691 0.0848378 0.0801522 0.0972823 
0.102259 0.103115 0.110372 0.0983553 0.109151 
0.0884917 0.0930728 0.108961 0.0926068 0.0846292 
0.102984 0.0991606 0.0852298 0.105928 0.104124 
0.0883402 0.0893293 0.0852837 0.0941408 0.095928 
0.0897224 0.0960789 0.100817 0.0906909 
2.27374e-15 0.08 2.27374e-15 0.08 
2.27374e-15 0.08 0.075 0.07 0.065 
0.06 0.055 0.05 0.045 0.04 
0.035 0.03 0.025 0.02 0.015 
0.01 0.005 0.08 0.08 0.08 
0.08 0.08 0.08 0.08 0.08 
0.08 0.005 0.01 0.015 0.02 
0.025 0.03 0.035 0.04 0.045 
0.05 0.055 0.06 0.065 0.07 
0.075 2.27374e-15 2.27374e-15 2.27374e-15 2.27374e-15 
2.27374e-15 2.27374e-15 2.27374e-15 2.27374e-15 2.27374e-15 
0.08 0.08 0.08 0.08 0.08 
0.08 0.08 0.08 0.08 0.08 
0.08 0.08 0.08 0.08 0.08 
0.08 0.08 0.005 0.01 0.015 
0.02 0.025 0.03 0.035 0.04 
0.045 0.05 0.055 0.06 0.065 
0.07 0.075 2.27374e-15 2.27374e-15 2.27374e-15 
2.27374e-15 2.27374e-15 2.27374e-15 2.27374e-15 2.27374e-15 
2.27374e-15 2.27374e-15 2.27374e-15 2.27374e-15 2.27374e-15 
2.27374e-15 2.27374e-15 2.27374e-15 2.27374e-15 0.073068 
0.062485 0.0523731 0.0423956 0.032436 0.0224571 
0.0125876 0.0756118 0.0757056 0.0757568 0.075538 
0.00684692 0.0173529 0.0274681 0.0375397 0.0475266 
0.0574429 0.0673489 0.00434621 0.00436078 0.00444677 
0.00441371 0.067734 0.0573827 0.0473831 0.0374179 
0.0274564 0.0174907 0.00815984 0.0757731 0.0754943 
0.0756791 0.0757735 0.0121385 0.0224228 0.0325115 
0.0425436 0.052485 0.0624263 0.0717924 0.00446898 
0.00440969 0.00441113 0.00413566 0.0649219 0.0248951 
0.0397887 0.0547189 0.0298803 0.0714979 0.0198878 
0.0706789 0.00932699 0.0350954 0.0348322 0.0715723 
0.0715259 0.0713502 0.0705048 0.00907334 0.0597108 
0.0712739 0.0300115 0.0451252 0.0549555 0.0649064 
0.00861035 0.0088934 0.00869946 0.0447738 0.0149144 
0.0249305 0.0497446 0.0198043 0.0500681 0.0147265 
0.0401403 0.0598519 0.00872775 0.00892442 0.0673498 
0.0620638 0.0675375 0.0569997 0.0371363 0.0274877 
0.0618099 0.0428263 0.0273463 0.0172202 0.0135816 
0.0131838 0.0526509 0.0574045 0.012934 0.0171093 
0.0224977 0.0668898 0.0471062 0.0521022 0.0222027 
0.0421173 0.0667477 0.0322049 0.0377877 0.0477772 
0.0672032 0.0672967 0.0125873 0.0326886 0.0133913 
0.0126127 0.0553815 0.0545468 0.029505 0.0639314 
0.0355296 0.0206245 0.0343814 0.018902 0.0598939 
0.0171158 0.044375 0.045627 0.0303415 0.0636227 
0.0494517 0.0249563 0.0393434 0.0593812 0.0406116 
0.0505902 0.0179067 0.0628895 0.0627087 0.0248495 
0.0632608 0.0264799 0.0216868 0.0384827 0.0518159 
0.0229921 0.0333925 0.0282376 0.0364318 0.0414788 
0.0537051 0.0314226 0.0486292 0.0575983 0.0586286 
0.0435586 0.0465816 0.0081473 0.0125732 0.0174806 
0.0224555 0.0274608 0.0324548 0.0374453 0.0424316 
0.0474106 0.052388 0.0573832 0.0624262 0.0675113 
0.0723628 0.0766016 0.0755929 0.0758181 0.0757479 
0.0756651 0.0756727 0.075762 0.0759084 0.0755402 
0.0757835 0.00706306 0.0174327 0.0274061 0.0373642 
0.0473437 0.0573189 0.067246 0.00433442 0.0043048 
0.0043728 0.00443378 0.00442976 0.00441256 0.00437765 
0.00413416 0.00477061 0.0756854 0.075533 0.0758591 
0.0756662 0.0756956 0.0758628 0.0757848 0.0323886 
0.0124082 0.0224161 0.0423477 0.0523318 0.0623034 
0.0717394 0.00443722 0.00432756 0.00441469 0.00443529 
0.00442723 0.00439014 0.0043028 0.0713464 0.0148837 
0.0198814 0.024943 0.0299255 0.0349034 0.0398819 
0.0448425 0.0497813 0.0547125 0.0596866 0.0648307 
0.0705576 0.0715175 0.0713392 0.0713332 0.0704117 
0.0248006 0.0715865 0.071576 0.07185 0.0546145 
0.0197955 0.0714056 0.0446616 0.0397023 0.0148649 
0.034719 0.0718737 0.00929294 0.0646831 0.00859322 
0.0713937 0.0087979 0.00887377 0.00885766 0.00881748 
0.00881046 0.0718415 0.00996794 0.071332 0.049632 
0.0713897 0.0297634 0.0595844 0.00854071 0.00886314 
0.00869224 0.00886515 0.00885463 0.00875821 0.00857761 
0.00796572 0.0682611 0.0225184 0.0274222 0.032357 
0.0373388 0.0422931 0.0472065 0.0520683 0.0568856 
0.0617147 0.0666581 0.0670182 0.0130232 0.0220927 
0.0131941 0.0468895 0.0671421 0.0133069 0.0671176 
0.0129276 0.0666708 0.0677945 0.017043 0.0370156 
0.0675355 0.0616886 0.0320345 0.0132986 0.0669974 
0.0133201 0.0133118 0.0128162 0.0567737 0.0518293 
0.0670219 0.0270931 0.0680608 0.0419698 0.0136707 
0.0669935 0.0670135 0.0171757 0.0131492 0.0125506 
0.0133396 0.0133028 0.0122023 0.0675304 0.0297541 
0.0347961 0.0397496 0.0446635 0.0495121 0.054255 
0.0588564 0.0633492 0.0242852 0.0628512 0.0627499 
0.0177389 0.0177718 0.0178363 0.0178074 0.0193199 
0.0625335 0.0627142 0.017857 0.0169456 0.0342793 
0.0627075 0.0626619 0.0639943 0.0174223 0.0169668 
0.0588243 0.017757 0.0292436 0.0647308 0.0441502 
0.0178329 0.0205976 0.0174859 0.0637711 0.0626877 
0.0629668 0.0392592 0.0249284 0.0537802 0.0215497 
0.0372264 0.0421197 0.0469915 0.0518164 0.0564555 
0.0608207 0.0313785 0.0261956 0.0489322 0.0415281 
0.0212899 0.0591826 0.0575479 0.0583134 0.0267029 
0.0221204 0.0222809 0.0584853 0.0584741 0.0585421 
0.022342 0.0463155 0.0365078 0.0505833 0.058324 
0.0322538 0.0222691 0.0583706 0.0224499 0.0543419 
0.0222023 0.0225196 0.0224769 0.0438969 0.0279031 
0.0444054 0.0493648 0.0347264 0.051807 0.053786 
0.0266568 0.053924 0.0338465 0.0268774 0.0389079 
0.0491998 0.0543431 0.0395204 0.0267594 0.0540075 
0.030308 0.054476 0.0267536 0.0543147 0.0266024 
0.0366857 0.0276973 0.0496161 0.0541357 0.0319603 
0.0466526 0.0416697 0.0488137 0.0316057 0.0499438 
0.0497438 0.0305903 0.0411969 0.0314235 0.0452492 
0.0507574 0.0313837 0.0369063 0.0502615 0.0336304 
0.035689 0.0455313 0.0438632 0.0408287 0.0452902 
0.0309644 0.0465264 0.0387841 0.045836 0.0366194 
0.0355994 0.0417534 0.0407401 0.0411759 
8.6238e-05 7.44375e-05 7.18565e-05 7.20811e-05 
7.24163e-05 7.22213e-05 7.22054e-05 7.14276e-05 7.14179e-05 
0.000116138 0.000122081 0.000125448 0.000125177 0.000124601 
0.000108072 0.000122098 0.00012404 0.000123638 0.000124703 
0.00012514 0.000125702 0.000123699 0.000136721 0.000120543 
0.000124102 0.000123647 0.000124297 0.00010484 9.506e-05 
0.000122657 9.98651e-05 7.3576e-05 9.91477e-05 7.18267e-05 
7.23357e-05 7.23566e-05 7.20967e-05 7.17319e-05 9.84994e-05 
7.06791e-05 0.000124411 0.00012556 0.000125001 0.000124211 
0.000126203 0.000123581 0.000124873 9.94987e-05 0.00011391 
0.000121986 0.000123691 0.000124287 0.000125001 0.00012491 
0.000125186 0.000126549 0.000125907 0.000123864 0.00012369 
0.000130257 9.86066e-05 0.000126993 9.86923e-05 9.84793e-05 
9.84829e-05 9.8246e-05 9.46752e-05 0.000123181 0.000123022 
0.000122432 0.000122693 0.000122559 0.000122469 0.000123366 
0.000123946 0.000123654 0.000119012 9.68499e-05 0.000122745 
0.000122669 0.000122406 0.000122691 0.000121956 0.000124234 
0.000123597 9.85706e-05 9.89693e-05 0.000123033 0.000122746 
0.000123174 0.000121674 0.000120848 0.000115391 0.000123804 
0.000110827 0.000110628 0.000109681 0.000123948 0.000110701 
0.000128305 0.000128825 0.000125316 0.000110316 0.000127466 
0.000101036 0.000125034 0.000124492 0.000123095 0.000123826 
0.000125136 0.000125033 0.000124617 0.000131146 0.000121873 
0.000109915 0.000126946 0.000103789 0.000124975 0.000117038 
0.000124817 0.000122532 0.000125597 0.000125113 0.000125868 
0.000123046 0.000131101 0.000145463 0.000123862 0.000122916 
0.000110749 0.000127231 0.000114887 0.000130545 0.000108677 
0.000128514 0.000110915 0.000127001 0.000124523 0.000122767 
0.000122716 0.000123413 0.000131739 0.000113435 0.000127906 
0.000122379 0.000121055 0.000120381 0.000126936 0.000122123 
0.000127801 0.000127124 0.000128487 0.000125739 0.00012283 
0.000125614 0.000126863 0.000125416 0.000122916 0.000122348 
0.000126275 0.000116837 0.000113621 0.000123959 0.000129895 
0.000119251 0.000128778 0.000123786 0.000123059 0.000124528 
0.000124787 0.0001226 0.000125232 0.000122517 0.000122729 
0.000122564 0.000122802 0.000122035 0.000129849 0.000126249 
0.000120298 0.000121201 0.000124642 0.000118029 0.000125634 
0.000125445 0.000119436 0.000125063 0.000123819 0.000123857 
0.000127043 0.000125593 0.000126814 0.000124476 0.0001245 
0.000125764 0.000125322 0.00011603 0.000130104 0.000131633 
0.000126643 0.000129567 0.000121156 0.00012081 0.000127657 
0.000122734 0.000121487 0.000121025 0.000127534 0.000118865 
0.000119362 0.000124935 0.000120822 0.00012727 0.000125708 
0.000122479 0.000125475 0.00012296 0.000125026 0.000124116 
0.000126564 0.000122732 0.000125018 0.00012297 0.000121191 
0.000127485 0.000127287 0.00012235 0.000120146 0.000126809 
0.000138805 0.000125445 0.000125056 0.000123505 0.000124078 
0.00011603 0.000127411 0.000123333 0.000128362 0.000121664 
0.000115758 0.000122155 0.000122363 0.00012988 0.00011621 
0.000118599 0.000124933 0.000121448 0.000131299 0.00012192 
0.000136046 0.000126027 0.000126084 0.000115014 0.000122328 
0.000126343 0.000115097 0.000126634 0.000122108 0.000124921 
0.000123906 0.00012187 0.000125243 0.000126343 0.000122091 
0.000119146 0.000112993 0.000121601 0.000127749 0.000123652 
0.000124682 0.000121681 0.000122138 0.000126626 0.000118992 
0.000123614 0.000128586 0.000125861 0.00012223 0.000124836 
0.000121781 0.000116752 0.000128218 0.000124314 0.000125166 
0.000135385 0.000124582 0.00012621 0.000122229 0.000118869 
0.000122675 0.0001223 0.000117727 0.000120264 0.00011383 
0.000117765 0.000124227 0.000128786 0.000127072 0.000131575 
0.000122099 0.00011905 0.000117667 0.000125512 0.000132535 
0.000130691 0.000127071 0.000126203 0.000124528 0.000129796 
0.000129021 0.000130752 0.000127444 0.000121954 0.00012869 
0.000122877 0.000121597 0.000123291 0.000122524 0.000126153 
0.000121717 0.000124421 0.00012559 0.000124656 0.000121133 
0.000129411 0.000125626 0.000126183 0.00011976 0.000119143 
0.000119165 0.000129011 0.000125838 0.000125261 0.000122322 
0.000122323 0.000126782 0.000121235 0.000128487 0.000121735 
0.000117616 0.000132684 0.000126934 0.000127124 0.000126278 
0.000117135 0.000126639 0.000126398 0.000121393 0.000122041 
0.000123978 0.000122346 0.000130797 0.00012488 0.00012155 
0.000123612 0.000122524 0.0001383 0.000117645 0.000115955 
0.000122056 0.0001229 0.000127765 0.000119759 0.000125985 
0.000119878 0.000129017 0.000118069 0.000129138 0.000118176 
0.000128829 0.000118346 0.00012875 0.000118519 0.000128585 
0.000120282 0.000128407 0.000120802 0.000128704 0.000120934 
0.000128944 0.000120465 0.000129561 0.000118758 0.000126889 
0.000111402 0.000111868 0.000123983 0.000115941 0.000122676 
0.000125644 0.000125424 0.000125494 0.000125622 0.000125276 
0.000124457 0.000125913 0.000126604 0.00012646 0.000134742 
0.00010742 0.000124119 0.000126739 0.000127398 0.000126016 
0.000125645 0.000124782 0.000123948 0.000119781 0.000126123 
0.000124282 0.000124071 0.000123747 0.000123398 0.00012339 
0.000124128 0.000128307 0.000132326 0.000125914 0.00014065 
0.00013648 0.000123131 0.000125402 0.000125252 0.000124675 
0.000126602 0.000125661 0.000123499 0.000125576 0.00012556 
0.00012477 0.000124722 0.00011788 0.000129533 0.000124053 
0.000126785 0.00012636 0.000123658 0.000125838 0.000125201 
0.000124596 0.000126771 0.000126154 0.000124245 0.000123942 
0.000123549 0.000123336 0.000123638 0.000125297 0.000122028 
0.000112221 0.000123642 0.000123851 0.000124808 0.00012307 
0.000122362 0.000123297 0.000123618 0.000124257 0.000124739 
0.000123343 0.000124004 0.000123851 0.000123944 0.000123664 
0.000122368 0.000124448 0.000123959 0.000124698 0.000121509 
0.000123887 0.000123912 0.000123872 0.000123839 0.000123498 
0.000120262 0.000120883 0.000124334 0.000122689 0.000123675 
0.000123365 0.000121674 0.000123358 0.000121785 0.000117099 
0.000124573 0.000123073 0.000119745 0.00012876 0.000119061 
0.000129941 0.000119387 0.000129407 0.000119251 0.00012881 
0.000119254 0.000128773 0.00011943 0.000128528 0.000119661 
0.000128142 0.000120078 0.000127787 0.000120274 0.000127801 
0.000124166 0.000129124 0.000115958 0.000135797 0.000130187 
0.000125479 0.000124506 0.000123694 0.000124303 0.000125735 
0.000132891 0.000126579 0.00012398 0.000124462 0.000123158 
0.000124077 0.000125472 0.000122517 0.000124412 0.000125227 
0.000125307 0.000125151 0.000123292 0.0001269 0.000122139 
0.000125007 0.000123078 0.000124921 0.000121149 0.000126775 
0.000122638 0.000124332 0.000132019 0.000124245 0.000123533 
0.000134448 0.00012434 0.000124126 0.000123784 0.000123832 
0.000124089 0.00012323 0.000124771 0.000133351 0.000122282 
0.000122366 0.000124383 0.000123788 0.000135815 0.000124809 
0.000123706 0.000112857 0.000124074 0.000138696 0.000125877 
0.000121416 0.000124263 0.000131731 0.000123853 0.000122593 
0.000115758 0.000128059 0.000114038 0.000123509 0.000123543 
0.000119193 0.000128117 0.000126289 0.000123338 0.000123192 
0.000124265 0.000124302 0.000124376 0.000123993 0.000124336 
0.000123951 0.000123782 0.000123875 0.000124069 0.000124702 
0.000124631 0.00011469 0.000138716 0.000121735 0.0001237 
0.000124235 0.000124005 0.000116897 0.000124494 0.000124065 
0.000123362 0.000116714 0.000124446 0.000123981 0.000124135 
0.000125948 0.000122912 0.000123075 0.000123702 0.00011915 
0.000125318 0.000119231 0.000128733 0.000119441 0.000128497 
0.000119845 0.000127978 0.000120285 0.000127197 0.000120526 
0.000126277 0.000120445 0.000125519 0.000121848 0.000119201 
0.000124897 0.000124685 0.000123396 0.00012523 0.000123675 
0.000123035 0.000125364 0.00012401 0.00012354 0.000123669 
0.000124599 0.000124494 0.000132671 0.000129829 0.000134277 
0.000121416 0.000118375 0.000124289 0.000122316 0.000124845 
0.000124011 0.00011578 0.000121678 0.000123523 0.00012586 
0.000124246 0.000123164 0.000124481 0.000124285 0.000124052 
0.00012351 0.000124473 0.000124632 0.000124599 0.000122772 
0.000124698 0.000124589 0.000124152 0.000124365 0.000124466 
0.000123562 0.000123519 0.000123127 0.000122394 0.000123692 
0.00012507 0.000123801 0.000122603 0.000130877 0.000123212 
0.000124784 0.000123164 0.000124007 0.000123686 0.000124101 
0.000123467 0.00012423 0.000124531 0.000116275 0.000123981 
0.000124319 0.000124059 0.000123817 0.000130977 0.000123744 
0.000126565 0.000123854 0.000121422 0.00011565 0.000124088 
0.000124067 0.000125051 0.000121832 0.000124088 0.000128759 
0.000124519 0.000126777 0.00012446 0.000129282 0.000116337 
0.000119772 0.000119054 0.00012889 0.000119421 0.000128449 
0.000119957 0.000128042 0.000120594 0.000127267 0.000121186 
0.000125928 0.00012125 0.000124068 0.000119374 0.000120673 
0.000122087 0.000124341 0.000125604 0.000129065 0.000124591 
0.000124774 0.000123271 0.000124246 0.000123181 0.000117894 
0.000126444 0.000122826 0.000125392 0.000124315 0.000123823 
0.000124593 0.000124044 0.000123553 0.000126962 0.000124015 
0.000124402 0.000124011 0.000124297 0.000124428 0.000124367 
0.000123687 0.0001277 0.000124944 0.000125071 0.000117339 
0.000124151 0.000125762 0.000115937 0.000122224 0.00012371 
0.000123516 0.000124567 0.000122986 0.000123028 0.000120149 
0.0001147 0.000125531 0.000122935 0.00012488 0.000115116 
0.000122388 0.000123601 0.000130219 0.000126501 0.00011766 
0.000124944 0.000123307 0.000117406 0.000125262 0.000122619 
0.00012257 0.000125046 0.000119491 0.000135366 0.000124923 
0.000122122 0.000125033 0.000123389 0.000123583 0.000122985 
0.000123462 0.000121597 0.000118979 0.000124734 0.000131258 
0.00011904 0.000119978 0.000128008 0.00012078 0.000127601 
0.000121382 0.000127633 0.000121999 0.000125192 0.000121204 
0.000119111 0.000124003 0.000122173 0.000123029 0.00012158 
0.000122801 0.00012665 0.000127245 0.000125587 0.000123964 
0.000140757 0.000128489 0.000127285 0.000130913 0.000130153 
0.000125202 0.000115999 0.000124963 0.000129598 0.000129292 
0.000125566 0.000117491 0.0001226 0.000124215 0.000128664 
0.00012701 0.000124625 0.000124501 0.000124207 0.000121794 
0.000121554 0.000126843 0.000132886 0.000125783 0.000116385 
0.000131538 0.000124335 0.000116635 0.000133159 0.000123756 
0.00012504 0.000126673 0.000118258 0.000124916 0.000117647 
0.000125694 0.000123552 0.000124804 0.000124353 0.000124285 
0.000125002 0.0001212 0.00012601 0.000131883 0.000123196 
0.000125405 0.000122039 0.000122981 0.000120676 0.000127339 
0.000124501 0.000122452 0.000124121 0.000132323 0.000129227 
0.000125732 0.000121494 0.000123518 0.000117148 0.000121025 
0.000124788 0.000128167 0.00011674 0.000121886 0.000132577 
0.000124333 0.000122475 0.000120135 0.000119392 0.000124082 
0.000127677 0.000117718 0.000126877 0.000122915 0.000122292 
0.000127215 0.000122465 0.000124873 0.000124712 0.000119041 
0.000111359 0.000121298 0.000133523 0.000118462 0.000129223 
0.00012031 0.000123302 0.000126016 0.000134204 0.000114595 
0.000127473 0.000118692 0.000123847 0.000123502 0.000120208 
0.000118991 0.000122847 0.000120241 0.000123983 0.000121983 
0.000125156 0.000124799 0.000125692 0.000122819 0.000126865 
0.000128461 0.000126328 0.000122529 0.000120604 0.000129389 
0.000127891 0.000124577 0.000130867 0.000125805 0.00012897 
0.000120853 0.000122424 0.000127615 0.000127027 0.00012598 
0.000123811 0.000109145 0.000125382 0.000132787 0.000129051 
0.000129794 0.000127546 0.000123842 0.000126267 0.000126845 
0.000123231 0.000127779 0.000129752 0.000133606 0.00012244 
0.000117095 0.000135674 0.000125652 0.000118054 0.000122913 
0.000123112 0.000117918 0.000124955 0.000126048 0.000131895 
0.000119911 0.000111912 0.000123331 0.000126123 0.000121066 
0.000127862 0.000126261 0.000125479 0.000131447 0.000121104 
0.000128229 0.000117495 0.000119549 0.000121682 0.00013199 
0.000127476 0.000126387 0.000122012 0.000118988 0.000115115 
0.000112673 0.00012856 0.0001151 0.000124435 0.000114823 
0.000129058 0.000122875 0.00011879 0.000121831 0.000127941 
0.000123441 0.000114136 0.000121814 0.000122991 0.000131734 
0.000124016 0.00012163 0.000126044 0.000127556 0.000127564 
0.000126316 0.000130272 0.000128937 0.000119739 0.000128365 
0.000130286 0.000133868 0.000130629 0.000122143 0.000115952 
0.000118515 0.000125755 0.000112171 0.000127333 0.000126022 
0.000126561 0.000127685 
748.294 990.339 993.049 991.723 
992.228 991.751 991.709 991.587 993.815 
870.001 852.764 849.982 847.969 854.348 
1094.69 1098.74 1098.68 1098.98 1099.36 
1099.4 1099.31 1099.07 1035.95 1093.55 
1098.2 1098.2 1098.33 1027.84 1070.64 
1098.79 1068.82 995.693 1069.24 991.168 
992.134 992.043 991.484 993.657 1069.28 
992.64 1024.97 847.544 1028.63 856.697 
1027.56 1024.05 850.508 1069.66 847.286 
1099.13 1099.03 1099.31 1099.39 1099.13 
1099.28 1099.14 1098.52 1098.21 1098.18 
1098.63 1069.41 1022.42 1069.49 1069.33 
1069.22 1069.43 1066.16 1024.69 1097.97 
1097.83 1097.88 1097.91 1097.92 1097.87 
1098.28 1098.26 1097.42 1068.62 1097.89 
1097.88 1097.84 1098.03 1097.94 1098.35 
1098.22 1069.47 1069.49 1097.95 1098.07 
1025.82 1097.87 1097.19 1091.73 1098.51 
1090.51 1090.49 1090.13 1091.39 1090.44 
1092.59 1094.22 1098.86 1090.34 1098.16 
1079.45 1091.56 1091.5 1097.28 1097.41 
1091.8 1097.63 1093.37 1098.77 1097.95 
1090.3 1098.09 1061.26 1091.85 1096.1 
1098.79 1097.74 1098.89 1098.7 1098.92 
1097.95 1092.4 1101.87 1098.3 1098.01 
1090.5 1098.19 1091.24 1098.66 1089.84 
1098.76 1090.56 1098.14 1098.64 1097.8 
1097.57 1093.59 1096.96 1095.47 1098.1 
1097.16 1098.1 1092.9 1098.16 1097.68 
1098.27 1098.11 1098.27 1098.6 1097.78 
1098.86 1099.06 1098.87 1097.87 1098.16 
1098.92 1097 1096.28 1098.28 1099.19 
1097.35 1098.26 1098.34 1097.89 1098.44 
1098.44 1097.74 1098.54 1097.86 1097.76 
1097.91 1098.16 1097.83 1099.66 1098.59 
1097.06 1097.13 1098.76 1096.88 1099.26 
1098.87 1096.66 1097.74 1098.39 1098.25 
1098.84 1098.84 1099.07 1098.16 1098.48 
1098.64 1098.69 1095.81 1099.26 1100.26 
1098.86 1098.99 1097.12 1097.06 1099.42 
1098.29 1097.59 1097.1 1099.29 1097.27 
1097.52 1098.9 1097.05 1099.17 1098.92 
1097.68 1098.86 1097.75 1098.4 1098.44 
1098.69 1097.7 1098.63 1098.1 1097.52 
1099.32 1099.22 1097.63 1097.58 1099.4 
1101.13 1098.88 1097.9 1097.87 1098.52 
1096.45 1098.33 1098.33 1098.91 1097.52 
1097.04 1097.67 1097.67 1099.38 1097.01 
1097.41 1098.65 1097.08 1099.67 1097.47 
1100.39 1098.15 1099 1096.99 1097.55 
1098.93 1096.54 1098.85 1097.39 1097.98 
1098.04 1097.43 1098.84 1099.05 1097.59 
1096.7 1095.97 1097.29 1099.34 1099.08 
1098.82 1097.59 1097.52 1099.08 1096.59 
1097.65 1098.84 1098.96 1097.55 1098.71 
1097.34 1097.12 1099.04 1098.27 1098.69 
1099.95 1098.71 1098.75 1097.57 1097.52 
1098.09 1097.74 1096.94 1097.58 1096.43 
1097.37 1098.63 1099.25 1099.21 1099.53 
1097.49 1097.41 1096.64 1098.19 1099.81 
1099.13 1098.77 1099.04 1098.02 1099.04 
1099.3 1099.91 1099.25 1097.43 1099.49 
1097.65 1097.33 1097.84 1097.65 1099.18 
1098.27 1098.08 1098.94 1098.8 1097.31 
1098.88 1099.15 1098.9 1097.92 1096.98 
1097.33 1099.47 1099.13 1098.88 1098.44 
1097.59 1099.16 1097.25 1099.75 1097.45 
1097.04 1099.58 1098.56 1099.37 1099.15 
1097.58 1099.33 1099.35 1097.5 1097.46 
1097.94 1097.68 1099.05 1098.76 1097.31 
1098.75 1097.98 1100.62 1096.96 1095.96 
1097.38 1097.77 1099.4 1096.98 1099.32 
1096.97 1099.89 1096.55 1099.85 1096.59 
1099.69 1096.64 1099.67 1096.7 1099.63 
1097.1 1099.6 1097.24 1099.69 1097.16 
1099.69 1096.97 1099.37 1096.5 1100.68 
1005.38 807.789 1088.06 872.06 853.57 
846.197 848.348 851.216 850.971 847.727 
842.601 855.261 846.156 1024.59 1010.24 
1094.6 1098.07 1098.37 1098.2 1098.27 
1098.21 1098.07 1097.88 1098.07 1098.39 
1098.27 1098.28 1098.23 1098.17 1098.17 
1098.3 1098.79 1099.24 1098.46 1101.21 
1036.63 1024.92 850.495 1028.58 855.525 
1026.33 844.618 1025.62 851.204 850.12 
844.13 847.131 1096.28 1098.74 1023.61 
1098.4 1098.29 1097.8 1098.24 1098.14 
1098.04 1098.07 1098.66 1098.3 1098.27 
1098.2 1098.16 1098.2 1098.5 1026.52 
1096.28 1025.79 1025.34 1022.82 1023.25 
1097.62 1097.8 1097.86 1097.94 1097.85 
1098.2 1098.33 1098.31 1098.32 1098.27 
1098.05 1021.93 1097.91 1098 1097.89 
1098.31 1098.32 1098.31 1098.3 1098.23 
1097.65 1097.69 1024.34 1023.67 1025.72 
1097.7 1097.55 1097.82 1097.92 1096.45 
1091.79 1097.73 1096.82 1099.61 1096.7 
1099.19 1096.85 1099.2 1096.85 1099.7 
1096.86 1099.69 1096.91 1099.63 1096.99 
1099.53 1097.14 1099.42 1097.19 1099.35 
1097.99 1099.68 1094.83 1100.23 1088.95 
1091.56 1091.82 1097.43 1091.8 1093.74 
1099.06 1098.63 1091.15 1091.53 1090.72 
1098.57 1098.78 1097.81 1091.6 1097.62 
1098.77 1098.74 1097.99 1098.99 1097.74 
1098.72 1097.94 1091.04 1096.93 1099.21 
1098.25 1098.35 1092.66 1091.71 1097.41 
1100.06 1098.38 1098.34 1098.28 1098.3 
1098.39 1090.57 1097.47 1100.05 1097.74 
1097.7 1091.81 1097.46 1099.83 1098.69 
1098.07 1095.36 1097.47 1098.95 1097.66 
1097.01 1091.91 1099.83 1097.47 1097.22 
1095.96 1099.95 1096.34 1098.02 1098.05 
1097.26 1093.61 1097.74 1098.43 1097.99 
1098.39 1098.38 1098.37 1098.34 1098.39 
1098.31 1098.29 1098.27 1098.1 1098.59 
1097.85 1096.88 1101.22 1098.03 1098.29 
1098.37 1098.34 1096.22 1098.39 1098.32 
1097.98 1097.03 1098.42 1098.33 1098.36 
1098.16 1097.96 1097.94 1098.58 1096.87 
1099.11 1096.85 1099.69 1096.9 1099.63 
1097.01 1099.52 1097.15 1099.35 1097.29 
1099.13 1097.49 1098.91 1097.94 1097.71 
1098.77 1098.5 1098.04 1098.78 1098.29 
1098.18 1098.79 1098.47 1098.26 1098.28 
1098.51 1098.37 1099.7 1100.01 1099.98 
1097.79 1097.1 1098.56 1097.9 1098.7 
1098.59 1096.76 1097.86 1098.5 1098.46 
1098.59 1097.96 1098.41 1098.44 1098.32 
1098.23 1098.41 1098.5 1098.44 1098.34 
1098.09 1098.67 1098.21 1098.21 1098.46 
1098.17 1099.45 1098.01 1097.84 1098.04 
1098.74 1098.1 1097.97 1099.34 1098.78 
1098.54 1098.1 1098.25 1098.19 1098.43 
1098.03 1097.82 1098.41 1096.51 1098.34 
1098.38 1098.26 1098.31 1099.82 1098.26 
1098.88 1097.73 1097.53 1097.03 1098.36 
1098.35 1098.53 1097.56 1098.29 1099.14 
1098.44 1098.77 1098.42 1099.17 1096.95 
1096.9 1096.82 1099.79 1096.9 1099.64 
1097.02 1099.52 1097.18 1099.38 1097.38 
1099.19 1097.55 1098.87 1097.36 1098.03 
1098.44 1098.59 1098.74 1099.21 1098.49 
1098.47 1098.17 1098.37 1098.25 1097.4 
1099.05 1097.95 1098.74 1098.38 1098.41 
1098.44 1098.36 1098.27 1098.22 1098.54 
1098.47 1098.25 1098.47 1098.31 1098.31 
1098.35 1098.62 1098.45 1098.54 1097.23 
1098.11 1098.61 1096.88 1097.8 1098.25 
1098.25 1098.43 1098.34 1097.93 1096.97 
1096.36 1098.82 1098.14 1098.49 1097.09 
1098.1 1098.35 1099.36 1098.8 1097.15 
1098.57 1097.98 1097.31 1098.55 1098.47 
1098.4 1098.41 1097.71 1099.99 1098.7 
1097.55 1098.48 1098.48 1098.11 1098.05 
1098.03 1097.8 1097.13 1098.22 1099.21 
1096.74 1097.01 1099.43 1097.13 1099.38 
1097.26 1098.91 1097.41 1099.57 1097.31 
1097.03 1098.06 1098.18 1098.04 1098.05 
1097.88 1099.06 1098.7 1098.71 1098.1 
1101.32 1098.9 1099.38 1099.41 1098.99 
1098.61 1096.64 1097.94 1098.76 1099.24 
1098.61 1096.58 1098.03 1098.87 1098.91 
1098.74 1098.49 1098.43 1098.28 1097.81 
1098.21 1098.82 1099.81 1098.74 1095.84 
1099.17 1098.59 1095.49 1099.58 1098.08 
1098.6 1098.64 1097.37 1098.6 1096.38 
1098.68 1098.21 1098.54 1098.31 1098.36 
1098.51 1098.04 1098.17 1099.6 1098.15 
1098.57 1098.05 1097.93 1097.67 1098.87 
1098.46 1098.04 1098.24 1099.82 1099.11 
1098.71 1097.76 1099.62 1096.78 1097.27 
1098.19 1099.7 1097.02 1097.75 1099.38 
1098.29 1098.87 1097.73 1097.57 1098.35 
1099.15 1097.18 1099.02 1098.3 1097.85 