
TITLE     = "DG2D to Tecplot"
VARIABLES = "X"
"Y"
"RHO"
"U"
"V"
"VELOCITY_MAG"
"P"
"T"
"THETA1"
"THETA2"
ZONE T="ZONE 1"
STRANDID=0
ZONETYPE=FEQuadrilateral
DATAPACKING=BLOCK
VARLOCATION=([3-10]=CELLCENTERED)
DT=(SINGLE SINGLE SINGLE SINGLE SINGLE SINGLE SINGLE SINGLE SINGLE SINGLE)

Nodes=1152, Elements=2176
0.02 0.4 -1.77463e-15 -1.06947e-14 
-1.07881e-14 -1.78819e-15 -0.02 -0.4 0.0228636 
0.0263654 0.0306476 0.0358839 0.0422872 0.0501175 
0.0596926 0.0714015 0.0857197 0.103229 0.124639 
0.150821 0.182838 0.221989 0.269865 0.328409 
0.0199037 0.0196157 0.0191388 0.0184776 0.0176384 
0.0166294 0.0154602 0.0141421 0.0126879 0.0111114 
0.00942793 0.00765367 0.00580569 0.00390181 0.00196034 
-2.2712e-15 -2.27081e-15 -2.27033e-15 -2.26975e-15 -2.26904e-15 
-2.26817e-15 -2.26711e-15 -2.26581e-15 -2.26422e-15 -2.26228e-15 
-2.2599e-15 -2.25699e-15 -2.25344e-15 -2.24909e-15 -2.24378e-15 
-2.23728e-15 0.398074 0.392314 0.382776 0.369552 
0.352769 0.332588 0.309204 0.282843 0.253757 
0.222228 0.188559 0.153073 0.116114 0.0780361 
0.0392069 0.0392069 0.0780361 0.116114 0.153073 
0.188559 0.222228 0.253757 0.282843 0.309204 
0.332588 0.352769 0.369552 0.382776 0.392314 
0.398074 -2.3102e-15 -2.3037e-15 -2.29838e-15 -2.29404e-15 
-2.29048e-15 -2.28757e-15 -2.2852e-15 -2.28325e-15 -2.28166e-15 
-2.28036e-15 -2.2793e-15 -2.27843e-15 -2.27772e-15 -2.27714e-15 
-2.27666e-15 -2.27628e-15 0.00196034 0.00390181 0.00580569 
0.00765367 0.00942793 0.0111114 0.0126879 0.0141421 
0.0154602 0.0166294 0.0176384 0.0184776 0.0191388 
0.0196157 0.0199037 -0.00196034 -0.00390181 -0.00580569 
-0.00765367 -0.00942793 -0.0111114 -0.0126879 -0.0141421 
-0.0154602 -0.0166294 -0.0176384 -0.0184776 -0.0191388 
-0.0196157 -0.0199037 -0.328409 -0.269865 -0.221989 
-0.182838 -0.150821 -0.124639 -0.103229 -0.0857197 
-0.0714015 -0.0596926 -0.0501175 -0.0422872 -0.0358839 
-0.0306476 -0.0263654 -0.0228636 -0.0392069 -0.0780361 
-0.116114 -0.153073 -0.188559 -0.222228 -0.253757 
-0.282843 -0.309204 -0.332588 -0.352769 -0.369552 
-0.382776 -0.392314 -0.398074 -0.398074 -0.392314 
-0.382776 -0.369552 -0.352769 -0.332588 -0.309204 
-0.282843 -0.253757 -0.222228 -0.188559 -0.153073 
-0.116114 -0.0780361 -0.0392069 -0.0199037 -0.0196157 
-0.0191388 -0.0184776 -0.0176384 -0.0166294 -0.0154602 
-0.0141421 -0.0126879 -0.0111114 -0.00942793 -0.00765367 
-0.00580569 -0.00390181 -0.00196034 0.0227535 0.0224243 
0.0218791 0.0211232 0.0201639 0.0190104 0.0176738 
0.016167 0.0145045 0.0127024 0.0107778 0.00874953 
0.00663696 0.00446047 0.00224103 0.0262385 0.0258588 
0.0252301 0.0243585 0.0232522 0.021922 0.0203807 
0.0186432 0.016726 0.0146478 0.0124286 0.0100896 
0.00765348 0.00514364 0.00258426 0.0305 0.0300587 
0.0293279 0.0283146 0.0270287 0.0254825 0.0236909 
0.0216711 0.0194426 0.0170269 0.0144472 0.0117283 
0.00889652 0.00597904 0.00300399 0.0357112 0.0351944 
0.0343388 0.0331524 0.0316468 0.0298364 0.0277387 
0.0253738 0.0227645 0.019936 0.0169156 0.0137322 
0.0104166 0.00700061 0.00351724 0.0420836 0.0414747 
0.0404664 0.0390683 0.037294 0.0351605 0.0326885 
0.0299016 0.0268267 0.0234935 0.0199341 0.0161826 
0.0122753 0.00824983 0.00414487 0.0498761 0.0491545 
0.0479594 0.0463025 0.0441996 0.0416711 0.0387413 
0.0354384 0.0317942 0.0278438 0.0236252 0.0191791 
0.0145483 0.00977743 0.00491237 0.0594052 0.0585456 
0.0571223 0.0551488 0.0526442 0.0496326 0.046143 
0.042209 0.0378686 0.0331634 0.0281389 0.0228434 
0.0173278 0.0116454 0.0058509 0.0710577 0.0700296 
0.068327 0.0659664 0.0629705 0.0593682 0.0551941 
0.0504885 0.0452966 0.0396686 0.0336584 0.0273242 
0.0207268 0.0139297 0.00699857 0.0853069 0.0840726 
0.0820286 0.0791947 0.075598 0.0712733 0.0662622 
0.060613 0.05438 0.0476233 0.040408 0.0328035 
0.0248831 0.0167231 0.008402 0.102732 0.101245 
0.0987836 0.0953708 0.0910395 0.0858315 0.0797968 
0.0729937 0.0654875 0.0573507 0.0486616 0.0395039 
0.0299657 0.0201389 0.0101182 0.124039 0.122244 
0.119272 0.115152 0.109922 0.103634 0.0963475 
0.0881333 0.0790703 0.0692459 0.0587546 0.0476974 
0.0361809 0.0243159 0.0122168 0.150095 0.147923 
0.144327 0.139341 0.133012 0.125403 0.116586 
0.106647 0.09568 0.0837918 0.0710966 0.0577168 
0.0437811 0.0294238 0.0147831 0.181957 0.179324 
0.174965 0.16892 0.161248 0.152024 0.141335 
0.129286 0.115991 0.101579 0.0861891 0.0699689 
0.053075 0.0356699 0.0179212 0.22092 0.217723 
0.21243 0.205091 0.195777 0.184577 0.1716 
0.15697 0.140828 0.12333 0.104645 0.0849514 
0.0644399 0.0433079 0.0217587 0.268565 0.264679 
0.258244 0.249322 0.237999 0.224384 0.208608 
0.190823 0.1712 0.149929 0.127213 0.103273 
0.0783375 0.052648 0.0264513 0.326828 0.322099 
0.314268 0.30341 0.289631 0.273062 0.253864 
0.23222 0.208341 0.182454 0.154811 0.125677 
0.0953321 0.0640694 0.0321897 0.0321897 0.0264513 
0.0217587 0.0179212 0.0147831 0.0122168 0.0101182 
0.008402 0.00699857 0.0058509 0.00491237 0.00414487 
0.00351724 0.00300399 0.00258426 0.00224103 0.0640694 
0.052648 0.0433079 0.0356699 0.0294238 0.0243159 
0.0201389 0.0167231 0.0139297 0.0116454 0.00977743 
0.00824983 0.00700061 0.00597904 0.00514364 0.00446047 
0.0953321 0.0783375 0.0644399 0.053075 0.0437811 
0.0361809 0.0299657 0.0248831 0.0207268 0.0173278 
0.0145483 0.0122753 0.0104166 0.00889652 0.00765348 
0.00663696 0.125677 0.103273 0.0849514 0.0699689 
0.0577168 0.0476974 0.0395039 0.0328035 0.0273242 
0.0228434 0.0191791 0.0161826 0.0137322 0.0117283 
0.0100896 0.00874953 0.154811 0.127213 0.104645 
0.0861891 0.0710966 0.0587546 0.0486616 0.040408 
0.0336584 0.0281389 0.0236252 0.0199341 0.0169156 
0.0144472 0.0124286 0.0107778 0.182454 0.149929 
0.12333 0.101579 0.0837918 0.0692459 0.0573507 
0.0476233 0.0396686 0.0331634 0.0278438 0.0234935 
0.019936 0.0170269 0.0146478 0.0127024 0.208341 
0.1712 0.140828 0.115991 0.09568 0.0790703 
0.0654875 0.05438 0.0452966 0.0378686 0.0317942 
0.0268267 0.0227645 0.0194426 0.016726 0.0145045 
0.23222 0.190823 0.15697 0.129286 0.106647 
0.0881333 0.0729937 0.060613 0.0504885 0.042209 
0.0354384 0.0299016 0.0253738 0.0216711 0.0186432 
0.016167 0.253864 0.208608 0.1716 0.141335 
0.116586 0.0963475 0.0797968 0.0662622 0.0551941 
0.046143 0.0387413 0.0326885 0.0277387 0.0236909 
0.0203807 0.0176738 0.273062 0.224384 0.184577 
0.152024 0.125403 0.103634 0.0858315 0.0712733 
0.0593682 0.0496326 0.0416711 0.0351605 0.0298364 
0.0254825 0.021922 0.0190104 0.289631 0.237999 
0.195777 0.161248 0.133012 0.109922 0.0910395 
0.075598 0.0629705 0.0526442 0.0441996 0.037294 
0.0316468 0.0270287 0.0232522 0.0201639 0.30341 
0.249322 0.205091 0.16892 0.139341 0.115152 
0.0953708 0.0791947 0.0659664 0.0551488 0.0463025 
0.0390683 0.0331524 0.0283146 0.0243585 0.0211232 
0.314268 0.258244 0.21243 0.174965 0.144327 
0.119272 0.0987836 0.0820286 0.068327 0.0571223 
0.0479594 0.0404664 0.0343388 0.0293279 0.0252301 
0.0218791 0.322099 0.264679 0.217723 0.179324 
0.147923 0.122244 0.101245 0.0840726 0.0700296 
0.0585456 0.0491545 0.0414747 0.0351944 0.0300587 
0.0258588 0.0224243 0.326828 0.268565 0.22092 
0.181957 0.150095 0.124039 0.102732 0.0853069 
0.0710577 0.0594052 0.0498761 0.0420836 0.0357112 
0.0305 0.0262385 0.0227535 -0.00224103 -0.00446047 
-0.00663696 -0.00874953 -0.0107778 -0.0127024 -0.0145045 
-0.016167 -0.0176738 -0.0190104 -0.0201639 -0.0211232 
-0.0218791 -0.0224243 -0.0227535 -0.00258426 -0.00514364 
-0.00765348 -0.0100896 -0.0124286 -0.0146478 -0.016726 
-0.0186432 -0.0203807 -0.021922 -0.0232522 -0.0243585 
-0.0252301 -0.0258588 -0.0262385 -0.00300399 -0.00597904 
-0.00889652 -0.0117283 -0.0144472 -0.0170269 -0.0194426 
-0.0216711 -0.0236909 -0.0254825 -0.0270287 -0.0283146 
-0.0293279 -0.0300587 -0.0305 -0.00351724 -0.00700061 
-0.0104166 -0.0137322 -0.0169156 -0.019936 -0.0227645 
-0.0253738 -0.0277387 -0.0298364 -0.0316468 -0.0331524 
-0.0343388 -0.0351944 -0.0357112 -0.00414487 -0.00824983 
-0.0122753 -0.0161826 -0.0199341 -0.0234935 -0.0268267 
-0.0299016 -0.0326885 -0.0351605 -0.037294 -0.0390683 
-0.0404664 -0.0414747 -0.0420836 -0.00491237 -0.00977743 
-0.0145483 -0.0191791 -0.0236252 -0.0278438 -0.0317942 
-0.0354384 -0.0387413 -0.0416711 -0.0441996 -0.0463025 
-0.0479594 -0.0491545 -0.0498761 -0.0058509 -0.0116454 
-0.0173278 -0.0228434 -0.0281389 -0.0331634 -0.0378686 
-0.042209 -0.046143 -0.0496326 -0.0526442 -0.0551488 
-0.0571223 -0.0585456 -0.0594052 -0.00699857 -0.0139297 
-0.0207268 -0.0273242 -0.0336584 -0.0396686 -0.0452966 
-0.0504885 -0.0551941 -0.0593682 -0.0629705 -0.0659664 
-0.068327 -0.0700296 -0.0710577 -0.008402 -0.0167231 
-0.0248831 -0.0328035 -0.040408 -0.0476233 -0.05438 
-0.060613 -0.0662622 -0.0712733 -0.075598 -0.0791947 
-0.0820286 -0.0840726 -0.0853069 -0.0101182 -0.0201389 
-0.0299657 -0.0395039 -0.0486616 -0.0573507 -0.0654875 
-0.0729937 -0.0797968 -0.0858315 -0.0910395 -0.0953708 
-0.0987836 -0.101245 -0.102732 -0.0122168 -0.0243159 
-0.0361809 -0.0476974 -0.0587546 -0.0692459 -0.0790703 
-0.0881333 -0.0963475 -0.103634 -0.109922 -0.115152 
-0.119272 -0.122244 -0.124039 -0.0147831 -0.0294238 
-0.0437811 -0.0577168 -0.0710966 -0.0837918 -0.09568 
-0.106647 -0.116586 -0.125403 -0.133012 -0.139341 
-0.144327 -0.147923 -0.150095 -0.0179212 -0.0356699 
-0.053075 -0.0699689 -0.0861891 -0.101579 -0.115991 
-0.129286 -0.141335 -0.152024 -0.161248 -0.16892 
-0.174965 -0.179324 -0.181957 -0.0217587 -0.0433079 
-0.0644399 -0.0849514 -0.104645 -0.12333 -0.140828 
-0.15697 -0.1716 -0.184577 -0.195777 -0.205091 
-0.21243 -0.217723 -0.22092 -0.0264513 -0.052648 
-0.0783375 -0.103273 -0.127213 -0.149929 -0.1712 
-0.190823 -0.208608 -0.224384 -0.237999 -0.249322 
-0.258244 -0.264679 -0.268565 -0.0321897 -0.0640694 
-0.0953321 -0.125677 -0.154811 -0.182454 -0.208341 
-0.23222 -0.253864 -0.273062 -0.289631 -0.30341 
-0.314268 -0.322099 -0.326828 -0.326828 -0.268565 
-0.22092 -0.181957 -0.150095 -0.124039 -0.102732 
-0.0853069 -0.0710577 -0.0594052 -0.0498761 -0.0420836 
-0.0357112 -0.0305 -0.0262385 -0.0227535 -0.322099 
-0.264679 -0.217723 -0.179324 -0.147923 -0.122244 
-0.101245 -0.0840726 -0.0700296 -0.0585456 -0.0491545 
-0.0414747 -0.0351944 -0.0300587 -0.0258588 -0.0224243 
-0.314268 -0.258244 -0.21243 -0.174965 -0.144327 
-0.119272 -0.0987836 -0.0820286 -0.068327 -0.0571223 
-0.0479594 -0.0404664 -0.0343388 -0.0293279 -0.0252301 
-0.0218791 -0.30341 -0.249322 -0.205091 -0.16892 
-0.139341 -0.115152 -0.0953708 -0.0791947 -0.0659664 
-0.0551488 -0.0463025 -0.0390683 -0.0331524 -0.0283146 
-0.0243585 -0.0211232 -0.289631 -0.237999 -0.195777 
-0.161248 -0.133012 -0.109922 -0.0910395 -0.075598 
-0.0629705 -0.0526442 -0.0441996 -0.037294 -0.0316468 
-0.0270287 -0.0232522 -0.0201639 -0.273062 -0.224384 
-0.184577 -0.152024 -0.125403 -0.103634 -0.0858315 
-0.0712733 -0.0593682 -0.0496326 -0.0416711 -0.0351605 
-0.0298364 -0.0254825 -0.021922 -0.0190104 -0.253864 
-0.208608 -0.1716 -0.141335 -0.116586 -0.0963475 
-0.0797968 -0.0662622 -0.0551941 -0.046143 -0.0387413 
-0.0326885 -0.0277387 -0.0236909 -0.0203807 -0.0176738 
-0.23222 -0.190823 -0.15697 -0.129286 -0.106647 
-0.0881333 -0.0729937 -0.060613 -0.0504885 -0.042209 
-0.0354384 -0.0299016 -0.0253738 -0.0216711 -0.0186432 
-0.016167 -0.208341 -0.1712 -0.140828 -0.115991 
-0.09568 -0.0790703 -0.0654875 -0.05438 -0.0452966 
-0.0378686 -0.0317942 -0.0268267 -0.0227645 -0.0194426 
-0.016726 -0.0145045 -0.182454 -0.149929 -0.12333 
-0.101579 -0.0837918 -0.0692459 -0.0573507 -0.0476233 
-0.0396686 -0.0331634 -0.0278438 -0.0234935 -0.019936 
-0.0170269 -0.0146478 -0.0127024 -0.154811 -0.127213 
-0.104645 -0.0861891 -0.0710966 -0.0587546 -0.0486616 
-0.040408 -0.0336584 -0.0281389 -0.0236252 -0.0199341 
-0.0169156 -0.0144472 -0.0124286 -0.0107778 -0.125677 
-0.103273 -0.0849514 -0.0699689 -0.0577168 -0.0476974 
-0.0395039 -0.0328035 -0.0273242 -0.0228434 -0.0191791 
-0.0161826 -0.0137322 -0.0117283 -0.0100896 -0.00874953 
-0.0953321 -0.0783375 -0.0644399 -0.053075 -0.0437811 
-0.0361809 -0.0299657 -0.0248831 -0.0207268 -0.0173278 
-0.0145483 -0.0122753 -0.0104166 -0.00889652 -0.00765348 
-0.00663696 -0.0640694 -0.052648 -0.0433079 -0.0356699 
-0.0294238 -0.0243159 -0.0201389 -0.0167231 -0.0139297 
-0.0116454 -0.00977743 -0.00824983 -0.00700061 -0.00597904 
-0.00514364 -0.00446047 -0.0321897 -0.0264513 -0.0217587 
-0.0179212 -0.0147831 -0.0122168 -0.0101182 -0.008402 
-0.00699857 -0.0058509 -0.00491237 -0.00414487 -0.00351724 
-0.00300399 -0.00258426 -0.00224103 
0 0 0.02 0.4 
-0.4 -0.02 1.7465e-15 1.17307e-14 2.27374e-15 
2.27374e-15 2.27374e-15 2.27374e-15 2.27374e-15 2.27374e-15 
2.27374e-15 2.27374e-15 2.27374e-15 2.27374e-15 2.27374e-15 
2.27374e-15 2.27374e-15 2.27374e-15 2.27374e-15 2.27374e-15 
0.00196034 0.00390181 0.00580569 0.00765367 0.00942793 
0.0111114 0.0126879 0.0141421 0.0154602 0.0166294 
0.0176384 0.0184776 0.0191388 0.0196157 0.0199037 
0.0228636 0.0263654 0.0306476 0.0358839 0.0422872 
0.0501175 0.0596926 0.0714015 0.0857197 0.103229 
0.124639 0.150821 0.182838 0.221989 0.269865 
0.328409 0.0392069 0.0780361 0.116114 0.153073 
0.188559 0.222228 0.253757 0.282843 0.309204 
0.332588 0.352769 0.369552 0.382776 0.392314 
0.398074 -0.398074 -0.392314 -0.382776 -0.369552 
-0.352769 -0.332588 -0.309204 -0.282843 -0.253757 
-0.222228 -0.188559 -0.153073 -0.116114 -0.0780361 
-0.0392069 -0.328409 -0.269865 -0.221989 -0.182838 
-0.150821 -0.124639 -0.103229 -0.0857197 -0.0714015 
-0.0596926 -0.0501175 -0.0422872 -0.0358839 -0.0306476 
-0.0263654 -0.0228636 -0.0199037 -0.0196157 -0.0191388 
-0.0184776 -0.0176384 -0.0166294 -0.0154602 -0.0141421 
-0.0126879 -0.0111114 -0.00942793 -0.00765367 -0.00580569 
-0.00390181 -0.00196034 0.0199037 0.0196157 0.0191388 
0.0184776 0.0176384 0.0166294 0.0154602 0.0141421 
0.0126879 0.0111114 0.00942793 0.00765367 0.00580569 
0.00390181 0.00196034 2.27374e-15 2.27374e-15 2.27374e-15 
2.27374e-15 2.27374e-15 2.27374e-15 2.27374e-15 2.27374e-15 
2.27374e-15 2.27374e-15 2.27374e-15 2.27374e-15 2.27374e-15 
2.27374e-15 2.27374e-15 2.27374e-15 0.398074 0.392314 
0.382776 0.369552 0.352769 0.332588 0.309204 
0.282843 0.253757 0.222228 0.188559 0.153073 
0.116114 0.0780361 0.0392069 -0.0392069 -0.0780361 
-0.116114 -0.153073 -0.188559 -0.222228 -0.253757 
-0.282843 -0.309204 -0.332588 -0.352769 -0.369552 
-0.382776 -0.392314 -0.398074 -0.00196034 -0.00390181 
-0.00580569 -0.00765367 -0.00942793 -0.0111114 -0.0126879 
-0.0141421 -0.0154602 -0.0166294 -0.0176384 -0.0184776 
-0.0191388 -0.0196157 -0.0199037 0.00224103 0.00446047 
0.00663696 0.00874953 0.0107778 0.0127024 0.0145045 
0.016167 0.0176738 0.0190104 0.0201639 0.0211232 
0.0218791 0.0224243 0.0227535 0.00258426 0.00514364 
0.00765348 0.0100896 0.0124286 0.0146478 0.016726 
0.0186432 0.0203807 0.021922 0.0232522 0.0243585 
0.0252301 0.0258588 0.0262385 0.00300399 0.00597904 
0.00889652 0.0117283 0.0144472 0.0170269 0.0194426 
0.0216711 0.0236909 0.0254825 0.0270287 0.0283146 
0.0293279 0.0300587 0.0305 0.00351724 0.00700061 
0.0104166 0.0137322 0.0169156 0.019936 0.0227645 
0.0253738 0.0277387 0.0298364 0.0316468 0.0331524 
0.0343388 0.0351944 0.0357112 0.00414487 0.00824983 
0.0122753 0.0161826 0.0199341 0.0234935 0.0268267 
0.0299016 0.0326885 0.0351605 0.037294 0.0390683 
0.0404664 0.0414747 0.0420836 0.00491237 0.00977743 
0.0145483 0.0191791 0.0236252 0.0278438 0.0317942 
0.0354384 0.0387413 0.0416711 0.0441996 0.0463025 
0.0479594 0.0491545 0.0498761 0.0058509 0.0116454 
0.0173278 0.0228434 0.0281389 0.0331634 0.0378686 
0.042209 0.046143 0.0496326 0.0526442 0.0551488 
0.0571223 0.0585456 0.0594052 0.00699857 0.0139297 
0.0207268 0.0273242 0.0336584 0.0396686 0.0452966 
0.0504885 0.0551941 0.0593682 0.0629705 0.0659664 
0.068327 0.0700296 0.0710577 0.008402 0.0167231 
0.0248831 0.0328035 0.040408 0.0476233 0.05438 
0.060613 0.0662622 0.0712733 0.075598 0.0791947 
0.0820286 0.0840726 0.0853069 0.0101182 0.0201389 
0.0299657 0.0395039 0.0486616 0.0573507 0.0654875 
0.0729937 0.0797968 0.0858315 0.0910395 0.0953708 
0.0987836 0.101245 0.102732 0.0122168 0.0243159 
0.0361809 0.0476974 0.0587546 0.0692459 0.0790703 
0.0881333 0.0963475 0.103634 0.109922 0.115152 
0.119272 0.122244 0.124039 0.0147831 0.0294238 
0.0437811 0.0577168 0.0710966 0.0837918 0.09568 
0.106647 0.116586 0.125403 0.133012 0.139341 
0.144327 0.147923 0.150095 0.0179212 0.0356699 
0.053075 0.0699689 0.0861891 0.101579 0.115991 
0.129286 0.141335 0.152024 0.161248 0.16892 
0.174965 0.179324 0.181957 0.0217587 0.0433079 
0.0644399 0.0849514 0.104645 0.12333 0.140828 
0.15697 0.1716 0.184577 0.195777 0.205091 
0.21243 0.217723 0.22092 0.0264513 0.052648 
0.0783375 0.103273 0.127213 0.149929 0.1712 
0.190823 0.208608 0.224384 0.237999 0.249322 
0.258244 0.264679 0.268565 0.0321897 0.0640694 
0.0953321 0.125677 0.154811 0.182454 0.208341 
0.23222 0.253864 0.273062 0.289631 0.30341 
0.314268 0.322099 0.326828 -0.326828 -0.268565 
-0.22092 -0.181957 -0.150095 -0.124039 -0.102732 
-0.0853069 -0.0710577 -0.0594052 -0.0498761 -0.0420836 
-0.0357112 -0.0305 -0.0262385 -0.0227535 -0.322099 
-0.264679 -0.217723 -0.179324 -0.147923 -0.122244 
-0.101245 -0.0840726 -0.0700296 -0.0585456 -0.0491545 
-0.0414747 -0.0351944 -0.0300587 -0.0258588 -0.0224243 
-0.314268 -0.258244 -0.21243 -0.174965 -0.144327 
-0.119272 -0.0987836 -0.0820286 -0.068327 -0.0571223 
-0.0479594 -0.0404664 -0.0343388 -0.0293279 -0.0252301 
-0.0218791 -0.30341 -0.249322 -0.205091 -0.16892 
-0.139341 -0.115152 -0.0953708 -0.0791947 -0.0659664 
-0.0551488 -0.0463025 -0.0390683 -0.0331524 -0.0283146 
-0.0243585 -0.0211232 -0.289631 -0.237999 -0.195777 
-0.161248 -0.133012 -0.109922 -0.0910395 -0.075598 
-0.0629705 -0.0526442 -0.0441996 -0.037294 -0.0316468 
-0.0270287 -0.0232522 -0.0201639 -0.273062 -0.224384 
-0.184577 -0.152024 -0.125403 -0.103634 -0.0858315 
-0.0712733 -0.0593682 -0.0496326 -0.0416711 -0.0351605 
-0.0298364 -0.0254825 -0.021922 -0.0190104 -0.253864 
-0.208608 -0.1716 -0.141335 -0.116586 -0.0963475 
-0.0797968 -0.0662622 -0.0551941 -0.046143 -0.0387413 
-0.0326885 -0.0277387 -0.0236909 -0.0203807 -0.0176738 
-0.23222 -0.190823 -0.15697 -0.129286 -0.106647 
-0.0881333 -0.0729937 -0.060613 -0.0504885 -0.042209 
-0.0354384 -0.0299016 -0.0253738 -0.0216711 -0.0186432 
-0.016167 -0.208341 -0.1712 -0.140828 -0.115991 
-0.09568 -0.0790703 -0.0654875 -0.05438 -0.0452966 
-0.0378686 -0.0317942 -0.0268267 -0.0227645 -0.0194426 
-0.016726 -0.0145045 -0.182454 -0.149929 -0.12333 
-0.101579 -0.0837918 -0.0692459 -0.0573507 -0.0476233 
-0.0396686 -0.0331634 -0.0278438 -0.0234935 -0.019936 
-0.0170269 -0.0146478 -0.0127024 -0.154811 -0.127213 
-0.104645 -0.0861891 -0.0710966 -0.0587546 -0.0486616 
-0.040408 -0.0336584 -0.0281389 -0.0236252 -0.0199341 
-0.0169156 -0.0144472 -0.0124286 -0.0107778 -0.125677 
-0.103273 -0.0849514 -0.0699689 -0.0577168 -0.0476974 
-0.0395039 -0.0328035 -0.0273242 -0.0228434 -0.0191791 
-0.0161826 -0.0137322 -0.0117283 -0.0100896 -0.00874953 
-0.0953321 -0.0783375 -0.0644399 -0.053075 -0.0437811 
-0.0361809 -0.0299657 -0.0248831 -0.0207268 -0.0173278 
-0.0145483 -0.0122753 -0.0104166 -0.00889652 -0.00765348 
-0.00663696 -0.0640694 -0.052648 -0.0433079 -0.0356699 
-0.0294238 -0.0243159 -0.0201389 -0.0167231 -0.0139297 
-0.0116454 -0.00977743 -0.00824983 -0.00700061 -0.00597904 
-0.00514364 -0.00446047 -0.0321897 -0.0264513 -0.0217587 
-0.0179212 -0.0147831 -0.0122168 -0.0101182 -0.008402 
-0.00699857 -0.0058509 -0.00491237 -0.00414487 -0.00351724 
-0.00300399 -0.00258426 -0.00224103 0.0227535 0.0224243 
0.0218791 0.0211232 0.0201639 0.0190104 0.0176738 
0.016167 0.0145045 0.0127024 0.0107778 0.00874953 
0.00663696 0.00446047 0.00224103 0.0262385 0.0258588 
0.0252301 0.0243585 0.0232522 0.021922 0.0203807 
0.0186432 0.016726 0.0146478 0.0124286 0.0100896 
0.00765348 0.00514364 0.00258426 0.0305 0.0300587 
0.0293279 0.0283146 0.0270287 0.0254825 0.0236909 
0.0216711 0.0194426 0.0170269 0.0144472 0.0117283 
0.00889652 0.00597904 0.00300399 0.0357112 0.0351944 
0.0343388 0.0331524 0.0316468 0.0298364 0.0277387 
0.0253738 0.0227645 0.019936 0.0169156 0.0137322 
0.0104166 0.00700061 0.00351724 0.0420836 0.0414747 
0.0404664 0.0390683 0.037294 0.0351605 0.0326885 
0.0299016 0.0268267 0.0234935 0.0199341 0.0161826 
0.0122753 0.00824983 0.00414487 0.0498761 0.0491545 
0.0479594 0.0463025 0.0441996 0.0416711 0.0387413 
0.0354384 0.0317942 0.0278438 0.0236252 0.0191791 
0.0145483 0.00977743 0.00491237 0.0594052 0.0585456 
0.0571223 0.0551488 0.0526442 0.0496326 0.046143 
0.042209 0.0378686 0.0331634 0.0281389 0.0228434 
0.0173278 0.0116454 0.0058509 0.0710577 0.0700296 
0.068327 0.0659664 0.0629705 0.0593682 0.0551941 
0.0504885 0.0452966 0.0396686 0.0336584 0.0273242 
0.0207268 0.0139297 0.00699857 0.0853069 0.0840726 
0.0820286 0.0791947 0.075598 0.0712733 0.0662622 
0.060613 0.05438 0.0476233 0.040408 0.0328035 
0.0248831 0.0167231 0.008402 0.102732 0.101245 
0.0987836 0.0953708 0.0910395 0.0858315 0.0797968 
0.0729937 0.0654875 0.0573507 0.0486616 0.0395039 
0.0299657 0.0201389 0.0101182 0.124039 0.122244 
0.119272 0.115152 0.109922 0.103634 0.0963475 
0.0881333 0.0790703 0.0692459 0.0587546 0.0476974 
0.0361809 0.0243159 0.0122168 0.150095 0.147923 
0.144327 0.139341 0.133012 0.125403 0.116586 
0.106647 0.09568 0.0837918 0.0710966 0.0577168 
0.0437811 0.0294238 0.0147831 0.181957 0.179324 
0.174965 0.16892 0.161248 0.152024 0.141335 
0.129286 0.115991 0.101579 0.0861891 0.0699689 
0.053075 0.0356699 0.0179212 0.22092 0.217723 
0.21243 0.205091 0.195777 0.184577 0.1716 
0.15697 0.140828 0.12333 0.104645 0.0849514 
0.0644399 0.0433079 0.0217587 0.268565 0.264679 
0.258244 0.249322 0.237999 0.224384 0.208608 
0.190823 0.1712 0.149929 0.127213 0.103273 
0.0783375 0.052648 0.0264513 0.326828 0.322099 
0.314268 0.30341 0.289631 0.273062 0.253864 
0.23222 0.208341 0.182454 0.154811 0.125677 
0.0953321 0.0640694 0.0321897 -0.0321897 -0.0264513 
-0.0217587 -0.0179212 -0.0147831 -0.0122168 -0.0101182 
-0.008402 -0.00699857 -0.0058509 -0.00491237 -0.00414487 
-0.00351724 -0.00300399 -0.00258426 -0.00224103 -0.0640694 
-0.052648 -0.0433079 -0.0356699 -0.0294238 -0.0243159 
-0.0201389 -0.0167231 -0.0139297 -0.0116454 -0.00977743 
-0.00824983 -0.00700061 -0.00597904 -0.00514364 -0.00446047 
-0.0953321 -0.0783375 -0.0644399 -0.053075 -0.0437811 
-0.0361809 -0.0299657 -0.0248831 -0.0207268 -0.0173278 
-0.0145483 -0.0122753 -0.0104166 -0.00889652 -0.00765348 
-0.00663696 -0.125677 -0.103273 -0.0849514 -0.0699689 
-0.0577168 -0.0476974 -0.0395039 -0.0328035 -0.0273242 
-0.0228434 -0.0191791 -0.0161826 -0.0137322 -0.0117283 
-0.0100896 -0.00874953 -0.154811 -0.127213 -0.104645 
-0.0861891 -0.0710966 -0.0587546 -0.0486616 -0.040408 
-0.0336584 -0.0281389 -0.0236252 -0.0199341 -0.0169156 
-0.0144472 -0.0124286 -0.0107778 -0.182454 -0.149929 
-0.12333 -0.101579 -0.0837918 -0.0692459 -0.0573507 
-0.0476233 -0.0396686 -0.0331634 -0.0278438 -0.0234935 
-0.019936 -0.0170269 -0.0146478 -0.0127024 -0.208341 
-0.1712 -0.140828 -0.115991 -0.09568 -0.0790703 
-0.0654875 -0.05438 -0.0452966 -0.0378686 -0.0317942 
-0.0268267 -0.0227645 -0.0194426 -0.016726 -0.0145045 
-0.23222 -0.190823 -0.15697 -0.129286 -0.106647 
-0.0881333 -0.0729937 -0.060613 -0.0504885 -0.042209 
-0.0354384 -0.0299016 -0.0253738 -0.0216711 -0.0186432 
-0.016167 -0.253864 -0.208608 -0.1716 -0.141335 
-0.116586 -0.0963475 -0.0797968 -0.0662622 -0.0551941 
-0.046143 -0.0387413 -0.0326885 -0.0277387 -0.0236909 
-0.0203807 -0.0176738 -0.273062 -0.224384 -0.184577 
-0.152024 -0.125403 -0.103634 -0.0858315 -0.0712733 
-0.0593682 -0.0496326 -0.0416711 -0.0351605 -0.0298364 
-0.0254825 -0.021922 -0.0190104 -0.289631 -0.237999 
-0.195777 -0.161248 -0.133012 -0.109922 -0.0910395 
-0.075598 -0.0629705 -0.0526442 -0.0441996 -0.037294 
-0.0316468 -0.0270287 -0.0232522 -0.0201639 -0.30341 
-0.249322 -0.205091 -0.16892 -0.139341 -0.115152 
-0.0953708 -0.0791947 -0.0659664 -0.0551488 -0.0463025 
-0.0390683 -0.0331524 -0.0283146 -0.0243585 -0.0211232 
-0.314268 -0.258244 -0.21243 -0.174965 -0.144327 
-0.119272 -0.0987836 -0.0820286 -0.068327 -0.0571223 
-0.0479594 -0.0404664 -0.0343388 -0.0293279 -0.0252301 
-0.0218791 -0.322099 -0.264679 -0.217723 -0.179324 
-0.147923 -0.122244 -0.101245 -0.0840726 -0.0700296 
-0.0585456 -0.0491545 -0.0414747 -0.0351944 -0.0300587 
-0.0258588 -0.0224243 -0.326828 -0.268565 -0.22092 
-0.181957 -0.150095 -0.124039 -0.102732 -0.0853069 
-0.0710577 -0.0594052 -0.0498761 -0.0420836 -0.0357112 
-0.0305 -0.0262385 -0.0227535 
0.292447 0.27923 0.277383 0.294937 
0.335108 0.39727 0.480015 0.582717 0.705626 
0.849451 1.01495 1.20267 1.41267 1.64437 
1.89649 0.344538 0.334774 0.327074 0.329296 
0.350904 0.397158 0.468011 0.561557 0.676383 
0.811897 0.967901 1.14411 1.33981 1.55363 
1.78346 2.02636 0.39227 0.38678 0.38423 
0.392179 0.420977 0.476926 0.56018 0.66821 
0.798685 0.949982 1.12075 1.30938 1.51362 
1.73042 1.9559 2.18541 0.446426 0.444703 
0.447008 0.460938 0.497913 0.564914 0.661867 
0.785365 0.931937 1.09868 1.28276 1.48089 
1.68894 1.90187 2.11386 2.31849 0.502838 
0.504979 0.512651 0.533178 0.578919 0.65748 
0.768385 0.907096 1.06867 1.24852 1.44186 
1.64321 1.84614 2.04333 2.22695 2.38922 
0.558432 0.564714 0.578708 0.606968 0.662206 
0.752499 0.876914 1.02956 1.20357 1.39209 
1.58779 1.78249 1.96715 2.13235 2.26911 
2.37004 0.611145 0.621911 0.643252 0.680614 
0.746233 0.8482 0.984997 1.14909 1.33115 
1.52141 1.70946 1.88425 2.03465 2.15061 
2.22464 2.25331 0.659701 0.67536 0.704941 
0.752656 0.829443 0.942674 1.08985 1.2614 
1.44503 1.62757 1.79552 1.93577 2.03711 
2.09213 2.09898 2.06204 0.7034 0.724391 
0.762882 0.821828 0.910151 1.0336 1.18807 
1.36149 1.53826 1.70199 1.83708 1.93074 
1.97524 1.96998 1.92184 1.8435 0.74194 
0.768656 0.81644 0.886937 0.986464 1.11821 
1.2757 1.44402 1.60453 1.7387 1.83132 
1.87346 1.86479 1.8138 1.73523 1.64555 
0.775298 0.807962 0.865054 0.946755 1.05627 
1.19342 1.34866 1.50434 1.63979 1.73672 
1.78367 1.7791 1.73177 1.6576 1.57417 
1.49556 0.803726 0.842238 0.908167 0.999969 
1.11734 1.25609 1.40342 1.53954 1.64377 
1.70111 1.70701 1.66876 1.60233 1.52615 
1.45495 1.39688 0.827905 0.871669 0.945332 
1.04531 1.16752 1.30358 1.43768 1.54933 
1.62037 1.64188 1.61762 1.56209 1.49403 
1.42924 1.37669 1.33871 0.849399 0.89714 
0.976606 1.08194 1.20526 1.33426 1.45108 
1.5364 1.5769 1.57116 1.53018 1.4719 
1.41326 1.36478 1.32985 1.30712 0.871439 
0.920998 1.00327 1.1101 1.23022 1.34826 
1.44566 1.50611 1.52247 1.50023 1.45467 
1.40317 1.35826 1.32521 1.3037 1.29096 
0.899567 0.947742 1.02843 1.13172 1.24397 
1.34808 1.42633 1.46643 1.46706 1.43836 
1.39648 1.35574 1.32397 1.30272 1.29003 
1.28307 0.938027 0.980646 1.05377 1.14722 
1.2472 1.33696 1.40054 1.42891 1.42383 
1.39657 1.36168 1.33028 1.30729 1.29271 
1.28438 1.27992 2.16695 1.27639 1.27669 
1.27797 1.28328 1.30376 1.37279 1.55684 
1.90037 2.30289 2.57135 2.63565 2.55826 
2.41341 2.24077 2.05946 1.89339 1.2764 
1.27663 1.27762 1.28151 1.29579 1.34314 
1.47354 1.74055 2.10395 2.40168 2.51735 
2.47283 2.34087 2.17138 1.98618 1.79719 
1.62591 1.27672 1.27764 1.28107 1.29276 
1.3293 1.4279 1.63649 1.94727 2.24221 
2.3929 2.3821 2.26865 2.10803 1.92827 
1.7401 1.55173 1.38293 1.27811 1.28159 
1.29273 1.32473 1.40586 1.57425 1.83396 
2.10379 2.26761 2.28348 2.19013 2.04156 
1.87086 1.69119 1.50746 1.32626 1.16577 
1.28343 1.29492 1.32595 1.39837 1.54028 
1.75643 1.98995 2.14687 2.1774 2.1018 
1.96671 1.80689 1.63832 1.46591 1.29212 
1.12294 0.974858 1.30007 1.3308 1.39886 
1.52271 1.70279 1.8966 2.03259 2.06512 
2.00215 1.88039 1.7326 1.57626 1.41727 
1.2569 1.09689 0.943027 0.809998 1.33981 
1.40181 1.51068 1.65972 1.81445 1.92217 
1.9469 1.89081 1.78114 1.6461 1.50284 
1.35804 1.21288 1.06748 0.923734 0.787185 
0.670635 1.40663 1.4951 1.6146 1.73253 
1.81009 1.82173 1.76816 1.66912 1.54727 
1.4179 1.28779 1.15831 1.02906 0.900248 
0.774084 0.655762 0.556161 1.47588 1.55941 
1.64219 1.69114 1.68861 1.63557 1.54632 
1.43806 1.32338 1.20842 1.09474 0.981826 
0.869184 0.757515 0.649272 0.549135 0.46612 
1.49872 1.54204 1.56423 1.54881 1.49641 
1.41702 1.32298 1.2238 1.12454 1.02665 
0.929748 0.833123 0.736765 0.641844 0.550842 
0.46778 0.40005 1.44323 1.43599 1.4083 
1.35708 1.28808 1.20907 1.12635 1.04349 
0.961582 0.88032 0.799011 0.717369 0.63591 
0.556065 0.480138 0.411592 0.356777 1.32215 
1.27927 1.22771 1.16844 1.10461 1.03903 
0.973322 0.907866 0.842206 0.77565 0.707773 
0.638731 0.56936 0.501154 0.436331 0.378342 
0.333399 1.17835 1.12191 1.06815 1.01702 
0.967578 0.918885 0.870019 0.820012 0.767962 
0.713235 0.655642 0.595553 0.533942 0.472485 
0.413882 0.362477 0.324784 1.05359 0.998572 
0.952975 0.914775 0.880073 0.845907 0.810268 
0.771765 0.729437 0.682729 0.631549 0.576365 
0.518366 0.459752 0.404149 0.356857 0.324272 
0.970319 0.921652 0.885122 0.857248 0.83259 
0.807393 0.779384 0.747184 0.709953 0.667276 
0.619197 0.566361 0.510248 0.453461 0.399973 
0.355086 0.324742 0.932909 0.889829 0.859026 
0.836245 0.81557 0.793245 0.767204 0.73635 
0.700113 0.658321 0.611209 0.559556 0.504859 
0.449521 0.396994 0.351907 0.320054 1.27631 
2.4529 2.75074 3.0563 3.36493 3.67168 
3.97156 4.25963 4.5312 4.78201 5.00815 
5.20617 5.37307 5.50618 5.60322 5.66229 
2.27865 2.53605 2.79385 3.04716 3.2912 
3.52158 3.73451 3.92703 4.09713 4.24378 
4.36696 4.46748 4.54694 4.60745 4.65139 
4.68101 2.41377 2.6355 2.8452 3.03794 
3.20954 3.35696 3.47849 3.57389 3.64439 
3.6926 3.72228 3.73802 3.74488 3.74789 
3.75163 3.75977 2.50925 2.67994 2.82523 
2.94116 3.02553 3.07817 3.10095 3.09768 
3.07361 3.03492 2.98809 2.93927 2.89393 
2.85662 2.831 2.81983 2.52317 2.62342 
2.68684 2.71305 2.70454 2.66638 2.60548 
2.5296 2.44635 2.3624 2.28303 2.21202 
2.15191 2.10424 2.06998 2.0498 2.43037 
2.44887 2.42818 2.37447 2.29634 2.20336 
2.10455 2.00731 1.91689 1.83648 1.76753 
1.71031 1.66435 1.62887 1.60305 1.58623 
2.2381 2.18532 2.10482 2.00803 1.90577 
1.80667 1.71651 1.63831 1.57295 1.51987 
1.47773 1.44491 1.41983 1.4011 1.38757 
1.37841 1.99113 1.89911 1.79899 1.70147 
1.61369 1.53922 1.47883 1.43149 1.39533 
1.36821 1.34811 1.33337 1.32264 1.31491 
1.30943 1.30569 1.74996 1.65485 1.56797 