
TITLE     = "DG2D to Tecplot"
VARIABLES = "X"
"Y"
"RHO"
"U"
"V"
"VELOCITY_MAG"
"P"
"T"
"THETA1"
"THETA2"
ZONE T="ZONE 1"
STRANDID=0
ZONETYPE=FEQuadrilateral
DATAPACKING=BLOCK
VARLOCATION=([3-10]=CELLCENTERED)
DT=(SINGLE SINGLE SINGLE SINGLE SINGLE SINGLE SINGLE SINGLE SINGLE SINGLE)

Nodes=1152, Elements=2176
0.02 0.4 -1.77463e-15 -1.06947e-14 
-1.07881e-14 -1.78819e-15 -0.02 -0.4 0.0228636 
0.0263654 0.0306476 0.0358839 0.0422872 0.0501175 
0.0596926 0.0714015 0.0857197 0.103229 0.124639 
0.150821 0.182838 0.221989 0.269865 0.328409 
0.0199037 0.0196157 0.0191388 0.0184776 0.0176384 
0.0166294 0.0154602 0.0141421 0.0126879 0.0111114 
0.00942793 0.00765367 0.00580569 0.00390181 0.00196034 
-2.2712e-15 -2.27081e-15 -2.27033e-15 -2.26975e-15 -2.26904e-15 
-2.26817e-15 -2.26711e-15 -2.26581e-15 -2.26422e-15 -2.26228e-15 
-2.2599e-15 -2.25699e-15 -2.25344e-15 -2.24909e-15 -2.24378e-15 
-2.23728e-15 0.398074 0.392314 0.382776 0.369552 
0.352769 0.332588 0.309204 0.282843 0.253757 
0.222228 0.188559 0.153073 0.116114 0.0780361 
0.0392069 0.0392069 0.0780361 0.116114 0.153073 
0.188559 0.222228 0.253757 0.282843 0.309204 
0.332588 0.352769 0.369552 0.382776 0.392314 
0.398074 -2.3102e-15 -2.3037e-15 -2.29838e-15 -2.29404e-15 
-2.29048e-15 -2.28757e-15 -2.2852e-15 -2.28325e-15 -2.28166e-15 
-2.28036e-15 -2.2793e-15 -2.27843e-15 -2.27772e-15 -2.27714e-15 
-2.27666e-15 -2.27628e-15 0.00196034 0.00390181 0.00580569 
0.00765367 0.00942793 0.0111114 0.0126879 0.0141421 
0.0154602 0.0166294 0.0176384 0.0184776 0.0191388 
0.0196157 0.0199037 -0.00196034 -0.00390181 -0.00580569 
-0.00765367 -0.00942793 -0.0111114 -0.0126879 -0.0141421 
-0.0154602 -0.0166294 -0.0176384 -0.0184776 -0.0191388 
-0.0196157 -0.0199037 -0.328409 -0.269865 -0.221989 
-0.182838 -0.150821 -0.124639 -0.103229 -0.0857197 
-0.0714015 -0.0596926 -0.0501175 -0.0422872 -0.0358839 
-0.0306476 -0.0263654 -0.0228636 -0.0392069 -0.0780361 
-0.116114 -0.153073 -0.188559 -0.222228 -0.253757 
-0.282843 -0.309204 -0.332588 -0.352769 -0.369552 
-0.382776 -0.392314 -0.398074 -0.398074 -0.392314 
-0.382776 -0.369552 -0.352769 -0.332588 -0.309204 
-0.282843 -0.253757 -0.222228 -0.188559 -0.153073 
-0.116114 -0.0780361 -0.0392069 -0.0199037 -0.0196157 
-0.0191388 -0.0184776 -0.0176384 -0.0166294 -0.0154602 
-0.0141421 -0.0126879 -0.0111114 -0.00942793 -0.00765367 
-0.00580569 -0.00390181 -0.00196034 0.0227535 0.0224243 
0.0218791 0.0211232 0.0201639 0.0190104 0.0176738 
0.016167 0.0145045 0.0127024 0.0107778 0.00874953 
0.00663696 0.00446047 0.00224103 0.0262385 0.0258588 
0.0252301 0.0243585 0.0232522 0.021922 0.0203807 
0.0186432 0.016726 0.0146478 0.0124286 0.0100896 
0.00765348 0.00514364 0.00258426 0.0305 0.0300587 
0.0293279 0.0283146 0.0270287 0.0254825 0.0236909 
0.0216711 0.0194426 0.0170269 0.0144472 0.0117283 
0.00889652 0.00597904 0.00300399 0.0357112 0.0351944 
0.0343388 0.0331524 0.0316468 0.0298364 0.0277387 
0.0253738 0.0227645 0.019936 0.0169156 0.0137322 
0.0104166 0.00700061 0.00351724 0.0420836 0.0414747 
0.0404664 0.0390683 0.037294 0.0351605 0.0326885 
0.0299016 0.0268267 0.0234935 0.0199341 0.0161826 
0.0122753 0.00824983 0.00414487 0.0498761 0.0491545 
0.0479594 0.0463025 0.0441996 0.0416711 0.0387413 
0.0354384 0.0317942 0.0278438 0.0236252 0.0191791 
0.0145483 0.00977743 0.00491237 0.0594052 0.0585456 
0.0571223 0.0551488 0.0526442 0.0496326 0.046143 
0.042209 0.0378686 0.0331634 0.0281389 0.0228434 
0.0173278 0.0116454 0.0058509 0.0710577 0.0700296 
0.068327 0.0659664 0.0629705 0.0593682 0.0551941 
0.0504885 0.0452966 0.0396686 0.0336584 0.0273242 
0.0207268 0.0139297 0.00699857 0.0853069 0.0840726 
0.0820286 0.0791947 0.075598 0.0712733 0.0662622 
0.060613 0.05438 0.0476233 0.040408 0.0328035 
0.0248831 0.0167231 0.008402 0.102732 0.101245 
0.0987836 0.0953708 0.0910395 0.0858315 0.0797968 
0.0729937 0.0654875 0.0573507 0.0486616 0.0395039 
0.0299657 0.0201389 0.0101182 0.124039 0.122244 
0.119272 0.115152 0.109922 0.103634 0.0963475 
0.0881333 0.0790703 0.0692459 0.0587546 0.0476974 
0.0361809 0.0243159 0.0122168 0.150095 0.147923 
0.144327 0.139341 0.133012 0.125403 0.116586 
0.106647 0.09568 0.0837918 0.0710966 0.0577168 
0.0437811 0.0294238 0.0147831 0.181957 0.179324 
0.174965 0.16892 0.161248 0.152024 0.141335 
0.129286 0.115991 0.101579 0.0861891 0.0699689 
0.053075 0.0356699 0.0179212 0.22092 0.217723 
0.21243 0.205091 0.195777 0.184577 0.1716 
0.15697 0.140828 0.12333 0.104645 0.0849514 
0.0644399 0.0433079 0.0217587 0.268565 0.264679 
0.258244 0.249322 0.237999 0.224384 0.208608 
0.190823 0.1712 0.149929 0.127213 0.103273 
0.0783375 0.052648 0.0264513 0.326828 0.322099 
0.314268 0.30341 0.289631 0.273062 0.253864 
0.23222 0.208341 0.182454 0.154811 0.125677 
0.0953321 0.0640694 0.0321897 0.0321897 0.0264513 
0.0217587 0.0179212 0.0147831 0.0122168 0.0101182 
0.008402 0.00699857 0.0058509 0.00491237 0.00414487 
0.00351724 0.00300399 0.00258426 0.00224103 0.0640694 
0.052648 0.0433079 0.0356699 0.0294238 0.0243159 
0.0201389 0.0167231 0.0139297 0.0116454 0.00977743 
0.00824983 0.00700061 0.00597904 0.00514364 0.00446047 
0.0953321 0.0783375 0.0644399 0.053075 0.0437811 
0.0361809 0.0299657 0.0248831 0.0207268 0.0173278 
0.0145483 0.0122753 0.0104166 0.00889652 0.00765348 
0.00663696 0.125677 0.103273 0.0849514 0.0699689 
0.0577168 0.0476974 0.0395039 0.0328035 0.0273242 
0.0228434 0.0191791 0.0161826 0.0137322 0.0117283 
0.0100896 0.00874953 0.154811 0.127213 0.104645 
0.0861891 0.0710966 0.0587546 0.0486616 0.040408 
0.0336584 0.0281389 0.0236252 0.0199341 0.0169156 
0.0144472 0.0124286 0.0107778 0.182454 0.149929 
0.12333 0.101579 0.0837918 0.0692459 0.0573507 
0.0476233 0.0396686 0.0331634 0.0278438 0.0234935 
0.019936 0.0170269 0.0146478 0.0127024 0.208341 
0.1712 0.140828 0.115991 0.09568 0.0790703 
0.0654875 0.05438 0.0452966 0.0378686 0.0317942 
0.0268267 0.0227645 0.0194426 0.016726 0.0145045 
0.23222 0.190823 0.15697 0.129286 0.106647 
0.0881333 0.0729937 0.060613 0.0504885 0.042209 
0.0354384 0.0299016 0.0253738 0.0216711 0.0186432 
0.016167 0.253864 0.208608 0.1716 0.141335 
0.116586 0.0963475 0.0797968 0.0662622 0.0551941 
0.046143 0.0387413 0.0326885 0.0277387 0.0236909 
0.0203807 0.0176738 0.273062 0.224384 0.184577 
0.152024 0.125403 0.103634 0.0858315 0.0712733 
0.0593682 0.0496326 0.0416711 0.0351605 0.0298364 
0.0254825 0.021922 0.0190104 0.289631 0.237999 
0.195777 0.161248 0.133012 0.109922 0.0910395 
0.075598 0.0629705 0.0526442 0.0441996 0.037294 
0.0316468 0.0270287 0.0232522 0.0201639 0.30341 
0.249322 0.205091 0.16892 0.139341 0.115152 
0.0953708 0.0791947 0.0659664 0.0551488 0.0463025 
0.0390683 0.0331524 0.0283146 0.0243585 0.0211232 
0.314268 0.258244 0.21243 0.174965 0.144327 
0.119272 0.0987836 0.0820286 0.068327 0.0571223 
0.0479594 0.0404664 0.0343388 0.0293279 0.0252301 
0.0218791 0.322099 0.264679 0.217723 0.179324 
0.147923 0.122244 0.101245 0.0840726 0.0700296 
0.0585456 0.0491545 0.0414747 0.0351944 0.0300587 
0.0258588 0.0224243 0.326828 0.268565 0.22092 
0.181957 0.150095 0.124039 0.102732 0.0853069 
0.0710577 0.0594052 0.0498761 0.0420836 0.0357112 
0.0305 0.0262385 0.0227535 -0.00224103 -0.00446047 
-0.00663696 -0.00874953 -0.0107778 -0.0127024 -0.0145045 
-0.016167 -0.0176738 -0.0190104 -0.0201639 -0.0211232 
-0.0218791 -0.0224243 -0.0227535 -0.00258426 -0.00514364 
-0.00765348 -0.0100896 -0.0124286 -0.0146478 -0.016726 
-0.0186432 -0.0203807 -0.021922 -0.0232522 -0.0243585 
-0.0252301 -0.0258588 -0.0262385 -0.00300399 -0.00597904 
-0.00889652 -0.0117283 -0.0144472 -0.0170269 -0.0194426 
-0.0216711 -0.0236909 -0.0254825 -0.0270287 -0.0283146 
-0.0293279 -0.0300587 -0.0305 -0.00351724 -0.00700061 
-0.0104166 -0.0137322 -0.0169156 -0.019936 -0.0227645 
-0.0253738 -0.0277387 -0.0298364 -0.0316468 -0.0331524 
-0.0343388 -0.0351944 -0.0357112 -0.00414487 -0.00824983 
-0.0122753 -0.0161826 -0.0199341 -0.0234935 -0.0268267 
-0.0299016 -0.0326885 -0.0351605 -0.037294 -0.0390683 
-0.0404664 -0.0414747 -0.0420836 -0.00491237 -0.00977743 
-0.0145483 -0.0191791 -0.0236252 -0.0278438 -0.0317942 
-0.0354384 -0.0387413 -0.0416711 -0.0441996 -0.0463025 
-0.0479594 -0.0491545 -0.0498761 -0.0058509 -0.0116454 
-0.0173278 -0.0228434 -0.0281389 -0.0331634 -0.0378686 
-0.042209 -0.046143 -0.0496326 -0.0526442 -0.0551488 
-0.0571223 -0.0585456 -0.0594052 -0.00699857 -0.0139297 
-0.0207268 -0.0273242 -0.0336584 -0.0396686 -0.0452966 
-0.0504885 -0.0551941 -0.0593682 -0.0629705 -0.0659664 
-0.068327 -0.0700296 -0.0710577 -0.008402 -0.0167231 
-0.0248831 -0.0328035 -0.040408 -0.0476233 -0.05438 
-0.060613 -0.0662622 -0.0712733 -0.075598 -0.0791947 
-0.0820286 -0.0840726 -0.0853069 -0.0101182 -0.0201389 
-0.0299657 -0.0395039 -0.0486616 -0.0573507 -0.0654875 
-0.0729937 -0.0797968 -0.0858315 -0.0910395 -0.0953708 
-0.0987836 -0.101245 -0.102732 -0.0122168 -0.0243159 
-0.0361809 -0.0476974 -0.0587546 -0.0692459 -0.0790703 
-0.0881333 -0.0963475 -0.103634 -0.109922 -0.115152 
-0.119272 -0.122244 -0.124039 -0.0147831 -0.0294238 
-0.0437811 -0.0577168 -0.0710966 -0.0837918 -0.09568 
-0.106647 -0.116586 -0.125403 -0.133012 -0.139341 
-0.144327 -0.147923 -0.150095 -0.0179212 -0.0356699 
-0.053075 -0.0699689 -0.0861891 -0.101579 -0.115991 
-0.129286 -0.141335 -0.152024 -0.161248 -0.16892 
-0.174965 -0.179324 -0.181957 -0.0217587 -0.0433079 
-0.0644399 -0.0849514 -0.104645 -0.12333 -0.140828 
-0.15697 -0.1716 -0.184577 -0.195777 -0.205091 
-0.21243 -0.217723 -0.22092 -0.0264513 -0.052648 
-0.0783375 -0.103273 -0.127213 -0.149929 -0.1712 
-0.190823 -0.208608 -0.224384 -0.237999 -0.249322 
-0.258244 -0.264679 -0.268565 -0.0321897 -0.0640694 
-0.0953321 -0.125677 -0.154811 -0.182454 -0.208341 
-0.23222 -0.253864 -0.273062 -0.289631 -0.30341 
-0.314268 -0.322099 -0.326828 -0.326828 -0.268565 
-0.22092 -0.181957 -0.150095 -0.124039 -0.102732 
-0.0853069 -0.0710577 -0.0594052 -0.0498761 -0.0420836 
-0.0357112 -0.0305 -0.0262385 -0.0227535 -0.322099 
-0.264679 -0.217723 -0.179324 -0.147923 -0.122244 
-0.101245 -0.0840726 -0.0700296 -0.0585456 -0.0491545 
-0.0414747 -0.0351944 -0.0300587 -0.0258588 -0.0224243 
-0.314268 -0.258244 -0.21243 -0.174965 -0.144327 
-0.119272 -0.0987836 -0.0820286 -0.068327 -0.0571223 
-0.0479594 -0.0404664 -0.0343388 -0.0293279 -0.0252301 
-0.0218791 -0.30341 -0.249322 -0.205091 -0.16892 
-0.139341 -0.115152 -0.0953708 -0.0791947 -0.0659664 
-0.0551488 -0.0463025 -0.0390683 -0.0331524 -0.0283146 
-0.0243585 -0.0211232 -0.289631 -0.237999 -0.195777 
-0.161248 -0.133012 -0.109922 -0.0910395 -0.075598 
-0.0629705 -0.0526442 -0.0441996 -0.037294 -0.0316468 
-0.0270287 -0.0232522 -0.0201639 -0.273062 -0.224384 
-0.184577 -0.152024 -0.125403 -0.103634 -0.0858315 
-0.0712733 -0.0593682 -0.0496326 -0.0416711 -0.0351605 
-0.0298364 -0.0254825 -0.021922 -0.0190104 -0.253864 
-0.208608 -0.1716 -0.141335 -0.116586 -0.0963475 
-0.0797968 -0.0662622 -0.0551941 -0.046143 -0.0387413 
-0.0326885 -0.0277387 -0.0236909 -0.0203807 -0.0176738 
-0.23222 -0.190823 -0.15697 -0.129286 -0.106647 
-0.0881333 -0.0729937 -0.060613 -0.0504885 -0.042209 
-0.0354384 -0.0299016 -0.0253738 -0.0216711 -0.0186432 
-0.016167 -0.208341 -0.1712 -0.140828 -0.115991 
-0.09568 -0.0790703 -0.0654875 -0.05438 -0.0452966 
-0.0378686 -0.0317942 -0.0268267 -0.0227645 -0.0194426 
-0.016726 -0.0145045 -0.182454 -0.149929 -0.12333 
-0.101579 -0.0837918 -0.0692459 -0.0573507 -0.0476233 
-0.0396686 -0.0331634 -0.0278438 -0.0234935 -0.019936 
-0.0170269 -0.0146478 -0.0127024 -0.154811 -0.127213 
-0.104645 -0.0861891 -0.0710966 -0.0587546 -0.0486616 
-0.040408 -0.0336584 -0.0281389 -0.0236252 -0.0199341 
-0.0169156 -0.0144472 -0.0124286 -0.0107778 -0.125677 
-0.103273 -0.0849514 -0.0699689 -0.0577168 -0.0476974 
-0.0395039 -0.0328035 -0.0273242 -0.0228434 -0.0191791 
-0.0161826 -0.0137322 -0.0117283 -0.0100896 -0.00874953 
-0.0953321 -0.0783375 -0.0644399 -0.053075 -0.0437811 
-0.0361809 -0.0299657 -0.0248831 -0.0207268 -0.0173278 
-0.0145483 -0.0122753 -0.0104166 -0.00889652 -0.00765348 
-0.00663696 -0.0640694 -0.052648 -0.0433079 -0.0356699 
-0.0294238 -0.0243159 -0.0201389 -0.0167231 -0.0139297 
-0.0116454 -0.00977743 -0.00824983 -0.00700061 -0.00597904 
-0.00514364 -0.00446047 -0.0321897 -0.0264513 -0.0217587 
-0.0179212 -0.0147831 -0.0122168 -0.0101182 -0.008402 
-0.00699857 -0.0058509 -0.00491237 -0.00414487 -0.00351724 
-0.00300399 -0.00258426 -0.00224103 
0 0 0.02 0.4 
-0.4 -0.02 1.7465e-15 1.17307e-14 2.27374e-15 
2.27374e-15 2.27374e-15 2.27374e-15 2.27374e-15 2.27374e-15 
2.27374e-15 2.27374e-15 2.27374e-15 2.27374e-15 2.27374e-15 
2.27374e-15 2.27374e-15 2.27374e-15 2.27374e-15 2.27374e-15 
0.00196034 0.00390181 0.00580569 0.00765367 0.00942793 
0.0111114 0.0126879 0.0141421 0.0154602 0.0166294 
0.0176384 0.0184776 0.0191388 0.0196157 0.0199037 
0.0228636 0.0263654 0.0306476 0.0358839 0.0422872 
0.0501175 0.0596926 0.0714015 0.0857197 0.103229 
0.124639 0.150821 0.182838 0.221989 0.269865 
0.328409 0.0392069 0.0780361 0.116114 0.153073 
0.188559 0.222228 0.253757 0.282843 0.309204 
0.332588 0.352769 0.369552 0.382776 0.392314 
0.398074 -0.398074 -0.392314 -0.382776 -0.369552 
-0.352769 -0.332588 -0.309204 -0.282843 -0.253757 
-0.222228 -0.188559 -0.153073 -0.116114 -0.0780361 
-0.0392069 -0.328409 -0.269865 -0.221989 -0.182838 
-0.150821 -0.124639 -0.103229 -0.0857197 -0.0714015 
-0.0596926 -0.0501175 -0.0422872 -0.0358839 -0.0306476 
-0.0263654 -0.0228636 -0.0199037 -0.0196157 -0.0191388 
-0.0184776 -0.0176384 -0.0166294 -0.0154602 -0.0141421 
-0.0126879 -0.0111114 -0.00942793 -0.00765367 -0.00580569 
-0.00390181 -0.00196034 0.0199037 0.0196157 0.0191388 
0.0184776 0.0176384 0.0166294 0.0154602 0.0141421 
0.0126879 0.0111114 0.00942793 0.00765367 0.00580569 
0.00390181 0.00196034 2.27374e-15 2.27374e-15 2.27374e-15 
2.27374e-15 2.27374e-15 2.27374e-15 2.27374e-15 2.27374e-15 
2.27374e-15 2.27374e-15 2.27374e-15 2.27374e-15 2.27374e-15 
2.27374e-15 2.27374e-15 2.27374e-15 0.398074 0.392314 
0.382776 0.369552 0.352769 0.332588 0.309204 
0.282843 0.253757 0.222228 0.188559 0.153073 
0.116114 0.0780361 0.0392069 -0.0392069 -0.0780361 
-0.116114 -0.153073 -0.188559 -0.222228 -0.253757 
-0.282843 -0.309204 -0.332588 -0.352769 -0.369552 
-0.382776 -0.392314 -0.398074 -0.00196034 -0.00390181 
-0.00580569 -0.00765367 -0.00942793 -0.0111114 -0.0126879 
-0.0141421 -0.0154602 -0.0166294 -0.0176384 -0.0184776 
-0.0191388 -0.0196157 -0.0199037 0.00224103 0.00446047 
0.00663696 0.00874953 0.0107778 0.0127024 0.0145045 
0.016167 0.0176738 0.0190104 0.0201639 0.0211232 
0.0218791 0.0224243 0.0227535 0.00258426 0.00514364 
0.00765348 0.0100896 0.0124286 0.0146478 0.016726 
0.0186432 0.0203807 0.021922 0.0232522 0.0243585 
0.0252301 0.0258588 0.0262385 0.00300399 0.00597904 
0.00889652 0.0117283 0.0144472 0.0170269 0.0194426 
0.0216711 0.0236909 0.0254825 0.0270287 0.0283146 
0.0293279 0.0300587 0.0305 0.00351724 0.00700061 
0.0104166 0.0137322 0.0169156 0.019936 0.0227645 
0.0253738 0.0277387 0.0298364 0.0316468 0.0331524 
0.0343388 0.0351944 0.0357112 0.00414487 0.00824983 
0.0122753 0.0161826 0.0199341 0.0234935 0.0268267 
0.0299016 0.0326885 0.0351605 0.037294 0.0390683 
0.0404664 0.0414747 0.0420836 0.00491237 0.00977743 
0.0145483 0.0191791 0.0236252 0.0278438 0.0317942 
0.0354384 0.0387413 0.0416711 0.0441996 0.0463025 
0.0479594 0.0491545 0.0498761 0.0058509 0.0116454 
0.0173278 0.0228434 0.0281389 0.0331634 0.0378686 
0.042209 0.046143 0.0496326 0.0526442 0.0551488 
0.0571223 0.0585456 0.0594052 0.00699857 0.0139297 
0.0207268 0.0273242 0.0336584 0.0396686 0.0452966 
0.0504885 0.0551941 0.0593682 0.0629705 0.0659664 
0.068327 0.0700296 0.0710577 0.008402 0.0167231 
0.0248831 0.0328035 0.040408 0.0476233 0.05438 
0.060613 0.0662622 0.0712733 0.075598 0.0791947 
0.0820286 0.0840726 0.0853069 0.0101182 0.0201389 
0.0299657 0.0395039 0.0486616 0.0573507 0.0654875 
0.0729937 0.0797968 0.0858315 0.0910395 0.0953708 
0.0987836 0.101245 0.102732 0.0122168 0.0243159 
0.0361809 0.0476974 0.0587546 0.0692459 0.0790703 
0.0881333 0.0963475 0.103634 0.109922 0.115152 
0.119272 0.122244 0.124039 0.0147831 0.0294238 
0.0437811 0.0577168 0.0710966 0.0837918 0.09568 
0.106647 0.116586 0.125403 0.133012 0.139341 
0.144327 0.147923 0.150095 0.0179212 0.0356699 
0.053075 0.0699689 0.0861891 0.101579 0.115991 
0.129286 0.141335 0.152024 0.161248 0.16892 
0.174965 0.179324 0.181957 0.0217587 0.0433079 
0.0644399 0.0849514 0.104645 0.12333 0.140828 
0.15697 0.1716 0.184577 0.195777 0.205091 
0.21243 0.217723 0.22092 0.0264513 0.052648 
0.0783375 0.103273 0.127213 0.149929 0.1712 
0.190823 0.208608 0.224384 0.237999 0.249322 
0.258244 0.264679 0.268565 0.0321897 0.0640694 
0.0953321 0.125677 0.154811 0.182454 0.208341 
0.23222 0.253864 0.273062 0.289631 0.30341 
0.314268 0.322099 0.326828 -0.326828 -0.268565 
-0.22092 -0.181957 -0.150095 -0.124039 -0.102732 
-0.0853069 -0.0710577 -0.0594052 -0.0498761 -0.0420836 
-0.0357112 -0.0305 -0.0262385 -0.0227535 -0.322099 
-0.264679 -0.217723 -0.179324 -0.147923 -0.122244 
-0.101245 -0.0840726 -0.0700296 -0.0585456 -0.0491545 
-0.0414747 -0.0351944 -0.0300587 -0.0258588 -0.0224243 
-0.314268 -0.258244 -0.21243 -0.174965 -0.144327 
-0.119272 -0.0987836 -0.0820286 -0.068327 -0.0571223 
-0.0479594 -0.0404664 -0.0343388 -0.0293279 -0.0252301 
-0.0218791 -0.30341 -0.249322 -0.205091 -0.16892 
-0.139341 -0.115152 -0.0953708 -0.0791947 -0.0659664 
-0.0551488 -0.0463025 -0.0390683 -0.0331524 -0.0283146 
-0.0243585 -0.0211232 -0.289631 -0.237999 -0.195777 
-0.161248 -0.133012 -0.109922 -0.0910395 -0.075598 
-0.0629705 -0.0526442 -0.0441996 -0.037294 -0.0316468 
-0.0270287 -0.0232522 -0.0201639 -0.273062 -0.224384 
-0.184577 -0.152024 -0.125403 -0.103634 -0.0858315 
-0.0712733 -0.0593682 -0.0496326 -0.0416711 -0.0351605 
-0.0298364 -0.0254825 -0.021922 -0.0190104 -0.253864 
-0.208608 -0.1716 -0.141335 -0.116586 -0.0963475 
-0.0797968 -0.0662622 -0.0551941 -0.046143 -0.0387413 
-0.0326885 -0.0277387 -0.0236909 -0.0203807 -0.0176738 
-0.23222 -0.190823 -0.15697 -0.129286 -0.106647 
-0.0881333 -0.0729937 -0.060613 -0.0504885 -0.042209 
-0.0354384 -0.0299016 -0.0253738 -0.0216711 -0.0186432 
-0.016167 -0.208341 -0.1712 -0.140828 -0.115991 
-0.09568 -0.0790703 -0.0654875 -0.05438 -0.0452966 
-0.0378686 -0.0317942 -0.0268267 -0.0227645 -0.0194426 
-0.016726 -0.0145045 -0.182454 -0.149929 -0.12333 
-0.101579 -0.0837918 -0.0692459 -0.0573507 -0.0476233 
-0.0396686 -0.0331634 -0.0278438 -0.0234935 -0.019936 
-0.0170269 -0.0146478 -0.0127024 -0.154811 -0.127213 
-0.104645 -0.0861891 -0.0710966 -0.0587546 -0.0486616 
-0.040408 -0.0336584 -0.0281389 -0.0236252 -0.0199341 
-0.0169156 -0.0144472 -0.0124286 -0.0107778 -0.125677 
-0.103273 -0.0849514 -0.0699689 -0.0577168 -0.0476974 
-0.0395039 -0.0328035 -0.0273242 -0.0228434 -0.0191791 
-0.0161826 -0.0137322 -0.0117283 -0.0100896 -0.00874953 
-0.0953321 -0.0783375 -0.0644399 -0.053075 -0.0437811 
-0.0361809 -0.0299657 -0.0248831 -0.0207268 -0.0173278 
-0.0145483 -0.0122753 -0.0104166 -0.00889652 -0.00765348 
-0.00663696 -0.0640694 -0.052648 -0.0433079 -0.0356699 
-0.0294238 -0.0243159 -0.0201389 -0.0167231 -0.0139297 
-0.0116454 -0.00977743 -0.00824983 -0.00700061 -0.00597904 
-0.00514364 -0.00446047 -0.0321897 -0.0264513 -0.0217587 
-0.0179212 -0.0147831 -0.0122168 -0.0101182 -0.008402 
-0.00699857 -0.0058509 -0.00491237 -0.00414487 -0.00351724 
-0.00300399 -0.00258426 -0.00224103 0.0227535 0.0224243 
0.0218791 0.0211232 0.0201639 0.0190104 0.0176738 
0.016167 0.0145045 0.0127024 0.0107778 0.00874953 
0.00663696 0.00446047 0.00224103 0.0262385 0.0258588 
0.0252301 0.0243585 0.0232522 0.021922 0.0203807 
0.0186432 0.016726 0.0146478 0.0124286 0.0100896 
0.00765348 0.00514364 0.00258426 0.0305 0.0300587 
0.0293279 0.0283146 0.0270287 0.0254825 0.0236909 
0.0216711 0.0194426 0.0170269 0.0144472 0.0117283 
0.00889652 0.00597904 0.00300399 0.0357112 0.0351944 
0.0343388 0.0331524 0.0316468 0.0298364 0.0277387 
0.0253738 0.0227645 0.019936 0.0169156 0.0137322 
0.0104166 0.00700061 0.00351724 0.0420836 0.0414747 
0.0404664 0.0390683 0.037294 0.0351605 0.0326885 
0.0299016 0.0268267 0.0234935 0.0199341 0.0161826 
0.0122753 0.00824983 0.00414487 0.0498761 0.0491545 
0.0479594 0.0463025 0.0441996 0.0416711 0.0387413 
0.0354384 0.0317942 0.0278438 0.0236252 0.0191791 
0.0145483 0.00977743 0.00491237 0.0594052 0.0585456 
0.0571223 0.0551488 0.0526442 0.0496326 0.046143 
0.042209 0.0378686 0.0331634 0.0281389 0.0228434 
0.0173278 0.0116454 0.0058509 0.0710577 0.0700296 
0.068327 0.0659664 0.0629705 0.0593682 0.0551941 
0.0504885 0.0452966 0.0396686 0.0336584 0.0273242 
0.0207268 0.0139297 0.00699857 0.0853069 0.0840726 
0.0820286 0.0791947 0.075598 0.0712733 0.0662622 
0.060613 0.05438 0.0476233 0.040408 0.0328035 
0.0248831 0.0167231 0.008402 0.102732 0.101245 
0.0987836 0.0953708 0.0910395 0.0858315 0.0797968 
0.0729937 0.0654875 0.0573507 0.0486616 0.0395039 
0.0299657 0.0201389 0.0101182 0.124039 0.122244 
0.119272 0.115152 0.109922 0.103634 0.0963475 
0.0881333 0.0790703 0.0692459 0.0587546 0.0476974 
0.0361809 0.0243159 0.0122168 0.150095 0.147923 
0.144327 0.139341 0.133012 0.125403 0.116586 
0.106647 0.09568 0.0837918 0.0710966 0.0577168 
0.0437811 0.0294238 0.0147831 0.181957 0.179324 
0.174965 0.16892 0.161248 0.152024 0.141335 
0.129286 0.115991 0.101579 0.0861891 0.0699689 
0.053075 0.0356699 0.0179212 0.22092 0.217723 
0.21243 0.205091 0.195777 0.184577 0.1716 
0.15697 0.140828 0.12333 0.104645 0.0849514 
0.0644399 0.0433079 0.0217587 0.268565 0.264679 
0.258244 0.249322 0.237999 0.224384 0.208608 
0.190823 0.1712 0.149929 0.127213 0.103273 
0.0783375 0.052648 0.0264513 0.326828 0.322099 
0.314268 0.30341 0.289631 0.273062 0.253864 
0.23222 0.208341 0.182454 0.154811 0.125677 
0.0953321 0.0640694 0.0321897 -0.0321897 -0.0264513 
-0.0217587 -0.0179212 -0.0147831 -0.0122168 -0.0101182 
-0.008402 -0.00699857 -0.0058509 -0.00491237 -0.00414487 
-0.00351724 -0.00300399 -0.00258426 -0.00224103 -0.0640694 
-0.052648 -0.0433079 -0.0356699 -0.0294238 -0.0243159 
-0.0201389 -0.0167231 -0.0139297 -0.0116454 -0.00977743 
-0.00824983 -0.00700061 -0.00597904 -0.00514364 -0.00446047 
-0.0953321 -0.0783375 -0.0644399 -0.053075 -0.0437811 
-0.0361809 -0.0299657 -0.0248831 -0.0207268 -0.0173278 
-0.0145483 -0.0122753 -0.0104166 -0.00889652 -0.00765348 
-0.00663696 -0.125677 -0.103273 -0.0849514 -0.0699689 
-0.0577168 -0.0476974 -0.0395039 -0.0328035 -0.0273242 
-0.0228434 -0.0191791 -0.0161826 -0.0137322 -0.0117283 
-0.0100896 -0.00874953 -0.154811 -0.127213 -0.104645 
-0.0861891 -0.0710966 -0.0587546 -0.0486616 -0.040408 
-0.0336584 -0.0281389 -0.0236252 -0.0199341 -0.0169156 
-0.0144472 -0.0124286 -0.0107778 -0.182454 -0.149929 
-0.12333 -0.101579 -0.0837918 -0.0692459 -0.0573507 
-0.0476233 -0.0396686 -0.0331634 -0.0278438 -0.0234935 
-0.019936 -0.0170269 -0.0146478 -0.0127024 -0.208341 
-0.1712 -0.140828 -0.115991 -0.09568 -0.0790703 
-0.0654875 -0.05438 -0.0452966 -0.0378686 -0.0317942 
-0.0268267 -0.0227645 -0.0194426 -0.016726 -0.0145045 
-0.23222 -0.190823 -0.15697 -0.129286 -0.106647 
-0.0881333 -0.0729937 -0.060613 -0.0504885 -0.042209 
-0.0354384 -0.0299016 -0.0253738 -0.0216711 -0.0186432 
-0.016167 -0.253864 -0.208608 -0.1716 -0.141335 
-0.116586 -0.0963475 -0.0797968 -0.0662622 -0.0551941 
-0.046143 -0.0387413 -0.0326885 -0.0277387 -0.0236909 
-0.0203807 -0.0176738 -0.273062 -0.224384 -0.184577 
-0.152024 -0.125403 -0.103634 -0.0858315 -0.0712733 
-0.0593682 -0.0496326 -0.0416711 -0.0351605 -0.0298364 
-0.0254825 -0.021922 -0.0190104 -0.289631 -0.237999 
-0.195777 -0.161248 -0.133012 -0.109922 -0.0910395 
-0.075598 -0.0629705 -0.0526442 -0.0441996 -0.037294 
-0.0316468 -0.0270287 -0.0232522 -0.0201639 -0.30341 
-0.249322 -0.205091 -0.16892 -0.139341 -0.115152 
-0.0953708 -0.0791947 -0.0659664 -0.0551488 -0.0463025 
-0.0390683 -0.0331524 -0.0283146 -0.0243585 -0.0211232 
-0.314268 -0.258244 -0.21243 -0.174965 -0.144327 
-0.119272 -0.0987836 -0.0820286 -0.068327 -0.0571223 
-0.0479594 -0.0404664 -0.0343388 -0.0293279 -0.0252301 
-0.0218791 -0.322099 -0.264679 -0.217723 -0.179324 
-0.147923 -0.122244 -0.101245 -0.0840726 -0.0700296 
-0.0585456 -0.0491545 -0.0414747 -0.0351944 -0.0300587 
-0.0258588 -0.0224243 -0.326828 -0.268565 -0.22092 
-0.181957 -0.150095 -0.124039 -0.102732 -0.0853069 
-0.0710577 -0.0594052 -0.0498761 -0.0420836 -0.0357112 
-0.0305 -0.0262385 -0.0227535 
0.232863 0.225086 0.23093 0.256253 
0.301988 0.366967 0.450415 0.552532 0.674199 
0.81653 0.980533 1.16688 1.3757 1.60642 
1.85771 0.280123 0.272394 0.268344 0.277119 
0.306727 0.359483 0.434093 0.529105 0.644003 
0.778917 0.934097 1.10949 1.30448 1.51768 
1.74687 1.98897 0.324551 0.320448 0.320603 
0.334535 0.371594 0.434903 0.522866 0.633236 
0.764602 0.916093 1.08679 1.27522 1.47913 
1.69528 1.91953 2.14696 0.373768 0.37311 
0.377771 0.397742 0.443623 0.518997 0.621732 
0.748563 0.896902 1.06455 1.249 1.44694 
1.65404 1.86489 2.07325 2.27236 0.423931 
0.42707 0.437188 0.464285 0.51994 0.608116 
0.72601 0.86906 1.0331 1.21409 1.40739 
1.60729 1.80695 1.9986 2.17407 2.3255 
0.472321 0.47977 0.49663 0.532311 0.598716 
0.70002 0.832647 0.990398 1.16698 1.35587 
1.54965 1.73979 1.9169 2.0714 2.19465 
2.28008 0.517287 0.529601 0.554461 0.600273 
0.678384 0.792708 0.938657 1.10797 1.29159 
1.47987 1.6623 1.82772 1.96527 2.0658 
2.12345 2.13692 0.558196 0.575902 0.609756 
0.666939 0.757354 0.883878 1.0404 1.21609 
1.39865 1.57512 1.73233 1.85808 1.94284 
1.9817 1.9756 1.93132 0.595484 0.618964 
0.662338 0.731433 0.833909 0.970637 1.13329 
1.30808 1.47943 1.63179 1.75127 1.82772 
1.85685 1.84143 1.79067 1.7177 0.63092 
0.66018 0.712878 0.793308 0.90622 1.04954 
1.21208 1.37712 1.52668 1.64471 1.71975 
1.74734 1.73116 1.68188 1.61382 1.54087 
0.668083 0.70243 0.763137 0.852724 0.972553 
1.11697 1.27173 1.41797 1.53736 1.61633 
1.64914 1.63905 1.597 1.5377 1.475 
1.41866 0.712871 0.750523 0.816313 0.910759 
1.03172 1.16995 1.3088 1.42901 1.51458 
1.55728 1.5585 1.52802 1.48008 1.42826 
1.38202 1.34575 0.77302 0.81088 0.876888 
0.969526 1.08362 1.20731 1.32316 1.41378 
1.46788 1.48355 1.46787 1.43339 1.39306 
1.35623 1.3274 1.30722 0.854687 0.888749 
0.948655 1.0312 1.12938 1.23063 1.31902 
1.3811 1.41092 1.41142 1.39198 1.36396 
1.33642 1.31427 1.29872 1.28886 0.955642 
0.982327 1.03027 1.09533 1.17026 1.24411 
1.30458 1.34296 1.35742 1.35282 1.33753 
1.3195 1.30382 1.29243 1.28515 1.28091 
1.06181 1.07927 1.11224 1.15645 1.20585 
1.25265 1.28906 1.31043 1.31699 1.31301 
1.3041 1.29475 1.28731 1.28234 1.27939 
1.2778 1.15299 1.16154 1.17986 1.20476 
1.23238 1.25821 1.27802 1.28955 1.29323 
1.29158 1.28763 1.28359 1.28049 1.2785 
1.27738 1.27679 2.12741 1.27632 1.27638 
1.27678 1.27886 1.28845 1.32615 1.44463 
1.71223 2.10017 2.42795 2.558 2.5146 
2.37887 2.20501 2.02013 1.85108 1.27631 
1.27634 1.27656 1.27775 1.28337 1.30607 
1.38135 1.5701 1.8916 2.22773 2.41535 
2.41947 2.30566 2.13807 1.94972 1.75738 
1.58391 1.27633 1.27645 1.27719 1.2808 
1.29559 1.34585 1.47941 1.73292 2.04418 
2.26464 2.31481 2.23014 2.07618 1.89434 
1.7026 1.51167 1.34162 1.2764 1.27686 
1.27932 1.28966 1.32521 1.42225 1.61863 
1.88815 2.11471 2.19963 2.14574 2.00985 
1.83897 1.65571 1.46895 1.28625 1.12546 
1.27668 1.27832 1.28575 1.31195 1.38459 
1.53675 1.76092 1.97321 2.07674 2.04968 
1.93374 1.77631 1.60447 1.4286 1.25284 
1.08324 0.935692 1.27766 1.28271 1.30195 
1.35688 1.47488 1.65668 1.8431 1.94979 
1.9418 1.84502 1.70246 1.54346 1.38067 
1.21782 1.05707 0.903758 0.771855 1.28047 
1.29339 1.33357 1.42343 1.5672 1.72292 
1.82122 1.82348 1.74291 1.6155 1.47025 
1.32141 1.17331 1.02679 0.883412 0.748117 
0.633014 1.28676 1.31288 1.37733 1.48616 
1.60977 1.69246 1.69713 1.62858 1.51543 
1.38431 1.24989 1.1171 0.986406 0.857777 
0.732838 0.616175 0.518073 1.29694 1.33684 
1.41226 1.50326 1.56597 1.56677 1.50554 
1.40462 1.28725 1.16733 1.0499 0.935341 
0.822831 0.712437 0.605994 0.507687 0.426075 
1.30691 1.35014 1.40834 1.44804 1.43979 
1.38077 1.28871 1.18351 1.07746 0.975036 
0.876297 0.779946 0.685162 0.592411 0.503665 
0.422618 0.356282 1.30747 1.33468 1.34995 
1.32849 1.26614 1.1779 1.08148 0.987394 
0.898903 0.815219 0.734401 0.654953 0.57648 
0.499819 0.426938 0.360991 0.307826 1.29012 
1.28444 1.24868 1.17855 1.08787 0.994373 
0.908158 0.831113 0.760983 0.694638 0.629658 
0.564838 0.500183 0.43671 0.376265 0.321772 
0.278768 1.25515 1.21202 1.13495 1.03735 
0.93919 0.853479 0.782574 0.722714 0.66887 
0.617037 0.564792 0.511168 0.456358 0.401475 
0.348571 0.301135 0.26515 1.21309 1.14043 
1.03944 0.932135 0.837536 0.763241 0.706473 
0.660443 0.618865 0.57742 0.533702 0.486826 
0.437106 0.385988 0.336263 0.292485 0.26109 
1.17768 1.08869 0.978682 0.871037 0.782336 
0.716891 0.669335 0.631542 0.596794 0.560745 
0.52108 0.477051 0.429219 0.379464 0.331143 
0.289199 0.259857 1.15738 1.06342 0.952931 
0.847824 0.763224 0.702014 0.657909 0.622556 
0.589404 0.554384 0.51544 0.472041 0.424905 
0.375933 0.328218 0.286116 0.255382 1.27631 
2.41257 2.70949 3.01385 3.32091 3.62565 
3.92304 4.20818 4.47646 4.72374 4.94632 
5.14098 5.30494 5.43583 5.53158 5.59048 
2.24011 2.49578 2.75109 3.00096 3.2405 
3.46527 3.67154 3.85647 4.0183 4.15632 
4.27089 4.36329 4.43561 4.49044 4.53058 
4.55859 2.37204 2.58903 2.79233 2.97688 
3.13858 3.27456 3.38344 3.46543 3.5223 
3.55724 3.57455 3.57931 3.57689 3.57255 
3.57095 3.57583 2.45541 2.61609 2.74923 
2.85121 2.92044 2.95754 2.96523 2.9481 
2.91204 2.86357 2.80918 2.75477 2.7054 
2.66509 2.63701 2.62352 2.44616 2.5313 
2.57877 2.58943 2.56701 2.51763 2.44883 
2.36851 2.28396 2.20118 2.12462 2.05725 
2.00085 1.95636 1.92426 1.90486 2.32428 
2.32771 2.29468 2.23266 2.15088 2.05878 
1.96462 1.87472 1.79317 1.72212 1.66226 
1.61328 1.57437 1.54456 1.5229 1.50867 
2.10988 2.05031 1.96882 1.8765 1.78301 
1.69542 1.61797 1.55245 1.49886 1.45618 
1.42287 1.39732 1.37804 1.36377 1.35354 
1.34661 1.85988 1.77391 1.68497 1.60167 
1.52913 1.46934 1.42209 1.38592 1.35886 
1.33895 1.32446 1.31399 1.30648 1.30113 
1.29737 1.29482 1.63613 1.55706 1.48757 