
TITLE     = "DG2D to Tecplot"
VARIABLES = "X"
"Y"
"RHO"
"U"
"V"
"VELOCITY_MAG"
"P"
"T"
"THETA1"
"THETA2"
ZONE T="ZONE 1"
STRANDID=0
ZONETYPE=FEQuadrilateral
DATAPACKING=BLOCK
VARLOCATION=([3-10]=CELLCENTERED)
DT=(SINGLE SINGLE SINGLE SINGLE SINGLE SINGLE SINGLE SINGLE SINGLE SINGLE)

Nodes=548, Elements=1006
0.05 0.05 -3.88578e-16 -3.88578e-16 
0.14 0.14 -3.88578e-16 -3.88578e-16 -3.88578e-16 
-3.88578e-16 -3.88578e-16 -3.88578e-16 -3.88578e-16 -3.88578e-16 
-3.88578e-16 -3.88578e-16 -3.88578e-16 -3.88578e-16 -3.88578e-16 
-3.88578e-16 -3.88578e-16 0.045 0.04 0.035 
0.03 0.025 0.02 0.015 0.01 
0.005 0.05 0.05 0.05 0.05 
0.05 0.05 0.05 0.05 0.05 
0.05 0.05 0.05 0.05 0.05 
0.05 0.005 0.01 0.015 0.02 
0.025 0.03 0.035 0.04 0.045 
0.135 0.13 0.125 0.12 0.115 
0.11 0.105 0.1 0.095 0.09 
0.085 0.08 0.075 0.07 0.065 
0.06 0.055 0.14 0.14 0.14 
0.14 0.14 0.14 0.14 0.14 
0.14 0.14 0.14 0.14 0.14 
0.14 0.14 0.055 0.06 0.065 
0.07 0.075 0.08 0.085 0.09 
0.095 0.1 0.105 0.11 0.115 
0.12 0.125 0.13 0.135 0.00441872 
0.00441736 0.004436 0.00447963 0.00443661 0.00442809 
0.00446324 0.0431093 0.0326026 0.0225849 0.012701 
0.0456369 0.0455014 0.0454191 0.0454932 0.0455855 
0.045728 0.0455948 0.00686385 0.0173913 0.0275096 
0.0374057 0.00459018 0.00438888 0.00447111 0.00446296 
0.00440999 0.00444058 0.0041588 0.0275527 0.0378107 
0.0176153 0.00824326 0.0454589 0.0454265 0.04545 
0.0455365 0.045657 0.0457159 0.0458195 0.0121629 
0.0224825 0.0324913 0.0418324 0.00884743 0.0407955 
0.00896493 0.00883337 0.00884395 0.0202569 0.0089191 
0.00960327 0.00913755 0.0409532 0.00891496 0.0299881 
0.0251115 0.0351123 0.0407922 0.0406239 0.00869536 
0.0152134 0.040863 0.0411027 0.0413788 0.0414018 
0.0147973 0.0250314 0.035068 0.00897282 0.00884337 
0.00878903 0.00894468 0.0408949 0.0412111 0.0411742 
0.0410198 0.0415391 0.0199257 0.0300758 0.0181923 
0.0375368 0.0321532 0.0131811 0.0134605 0.0361954 
0.01281 0.0365476 0.0132023 0.0138665 0.0276681 
0.0224389 0.0368659 0.0372007 0.01732 0.0364307 
0.0130739 0.0369863 0.013514 0.0134359 0.0360531 
0.0135036 0.0133544 0.0133615 0.0364685 0.0366656 
0.0228464 0.0274905 0.0372549 0.0363487 0.0327417 
0.0127553 0.0325643 0.0180184 0.0177933 0.0339523 
0.0318517 0.0170449 0.0179754 0.030792 0.0332087 
0.0195711 0.0181048 0.0320417 0.0316947 0.0164669 
0.0181104 0.0313771 0.0180654 0.0173838 0.0319544 
0.0321959 0.0248135 0.0206575 0.0253095 0.0174691 
0.029892 0.0221651 0.0214055 0.0273201 0.0228112 
0.0263727 0.0271974 0.0269534 0.0226528 0.0227146 
0.0276684 0.0225027 0.0274642 0.0228787 0.0284579 
0.027379 0.0227541 0.0541483 0.054455 0.0544357 
0.0544198 0.0543809 0.0543673 0.0543567 0.0543501 
0.0543497 0.0543572 0.0543884 0.0544802 0.0546144 
0.0542672 0.0534098 0.133037 0.122575 0.112549 
0.102561 0.0925489 0.0826102 0.0726712 0.0625365 
0.057671 0.135875 0.135809 0.135651 0.135618 
0.135581 0.135408 0.135325 0.0568516 0.0673419 
0.07744 0.0874743 0.0975143 0.107513 0.117415 
0.126932 0.131627 0.107566 0.127754 0.11752 
0.0975524 0.0875651 0.077664 0.0676187 0.135623 
0.135945 0.135709 0.135614 0.135497 0.13535 
0.135691 0.0621381 0.0724076 0.0824555 0.0924955 
0.102523 0.11248 0.122242 0.0900736 0.0588264 
0.0589122 0.058766 0.0587489 0.0587265 0.0587067 
0.058704 0.0587099 0.0587266 0.0587989 0.0590518 
0.0596068 0.125008 0.095086 0.105152 0.130493 
0.131338 0.0802277 0.115121 0.0704073 0.130889 
0.131483 0.0851154 0.131225 0.131239 0.13172 
0.131219 0.119963 0.0591113 0.13068 0.0698001 
0.110174 0.0798781 0.0899655 0.100058 0.110037 
0.119878 0.075371 0.132083 0.100117 0.131105 
0.0652927 0.131244 0.130709 0.0647365 0.0849132 
0.0748443 0.0950184 0.105071 0.114964 0.124499 
0.128582 0.122093 0.0630798 0.0631493 0.063128 
0.0630706 0.0630644 0.0630797 0.0630909 0.0630964 
0.063189 0.0637306 0.092579 0.11746 0.127108 
0.112589 0.126825 0.112912 0.107676 0.082599 
0.0722022 0.126137 0.068421 0.127289 0.126817 
0.117795 0.125898 0.126773 0.0822879 0.102721 
0.0924919 0.102661 0.0672228 0.126001 0.126534 
0.0976452 0.126867 0.0731853 0.126866 0.122837 
0.0875439 0.107828 0.0638334 0.0772251 0.0627122 
0.0873865 0.0975919 0.12775 0.077822 0.0676322 
0.0674369 0.0674204 0.0674561 0.0675016 0.0675031 
0.0674343 0.0674297 0.122561 0.0798409 0.0951369 
0.0795371 0.100256 0.0899086 0.110402 0.123089 
0.0848519 0.110663 0.0847166 0.119458 0.122296 
0.100234 0.105388 0.121375 0.0744351 0.0694379 
0.120161 0.0950916 0.122245 0.0711932 0.122508 
0.105386 0.0670457 0.115171 0.0752135 0.0900238 
0.116093 0.122451 0.0675702 0.12169 0.0714485 
0.0717484 0.0718188 0.0719091 0.0719968 0.0719489 
0.0716316 0.11751 0.11764 0.122459 0.118168 
0.118519 0.0762931 0.081625 0.0874389 0.0727114 
0.0764926 0.103046 0.113636 0.0976908 0.0926443 
0.113589 0.118124 0.117926 0.118338 0.108093 
0.0717609 0.0925864 0.102799 0.0818851 0.116227 
0.0977945 0.108374 0.087233 0.113929 0.111975 
0.076274 0.0764027 0.0760328 0.0808963 0.085436 
0.0786805 0.110714 0.113032 0.105925 0.113883 
0.11336 0.0766009 0.0761753 0.0953988 0.105258 
0.0758316 0.0903531 0.0901648 0.0951475 0.100543 
0.080513 0.0843652 0.107497 0.100095 0.107818 
0.0806835 0.080691 0.0848378 0.0801522 0.0972823 
0.102259 0.103115 0.110372 0.0983553 0.109151 
0.0884917 0.0930728 0.108961 0.0926068 0.0846292 
0.102984 0.0991606 0.0852298 0.105928 0.104124 
0.0883402 0.0893293 0.0852837 0.0941408 0.095928 
0.0897224 0.0960789 0.100817 0.0906909 
2.27374e-15 0.08 2.27374e-15 0.08 
2.27374e-15 0.08 0.075 0.07 0.065 
0.06 0.055 0.05 0.045 0.04 
0.035 0.03 0.025 0.02 0.015 
0.01 0.005 0.08 0.08 0.08 
0.08 0.08 0.08 0.08 0.08 
0.08 0.005 0.01 0.015 0.02 
0.025 0.03 0.035 0.04 0.045 
0.05 0.055 0.06 0.065 0.07 
0.075 2.27374e-15 2.27374e-15 2.27374e-15 2.27374e-15 
2.27374e-15 2.27374e-15 2.27374e-15 2.27374e-15 2.27374e-15 
0.08 0.08 0.08 0.08 0.08 
0.08 0.08 0.08 0.08 0.08 
0.08 0.08 0.08 0.08 0.08 
0.08 0.08 0.005 0.01 0.015 
0.02 0.025 0.03 0.035 0.04 
0.045 0.05 0.055 0.06 0.065 
0.07 0.075 2.27374e-15 2.27374e-15 2.27374e-15 
2.27374e-15 2.27374e-15 2.27374e-15 2.27374e-15 2.27374e-15 
2.27374e-15 2.27374e-15 2.27374e-15 2.27374e-15 2.27374e-15 
2.27374e-15 2.27374e-15 2.27374e-15 2.27374e-15 0.073068 
0.062485 0.0523731 0.0423956 0.032436 0.0224571 
0.0125876 0.0756118 0.0757056 0.0757568 0.075538 
0.00684692 0.0173529 0.0274681 0.0375397 0.0475266 
0.0574429 0.0673489 0.00434621 0.00436078 0.00444677 
0.00441371 0.067734 0.0573827 0.0473831 0.0374179 
0.0274564 0.0174907 0.00815984 0.0757731 0.0754943 
0.0756791 0.0757735 0.0121385 0.0224228 0.0325115 
0.0425436 0.052485 0.0624263 0.0717924 0.00446898 
0.00440969 0.00441113 0.00413566 0.0649219 0.0248951 
0.0397887 0.0547189 0.0298803 0.0714979 0.0198878 
0.0706789 0.00932699 0.0350954 0.0348322 0.0715723 
0.0715259 0.0713502 0.0705048 0.00907334 0.0597108 
0.0712739 0.0300115 0.0451252 0.0549555 0.0649064 
0.00861035 0.0088934 0.00869946 0.0447738 0.0149144 
0.0249305 0.0497446 0.0198043 0.0500681 0.0147265 
0.0401403 0.0598519 0.00872775 0.00892442 0.0673498 
0.0620638 0.0675375 0.0569997 0.0371363 0.0274877 
0.0618099 0.0428263 0.0273463 0.0172202 0.0135816 
0.0131838 0.0526509 0.0574045 0.012934 0.0171093 
0.0224977 0.0668898 0.0471062 0.0521022 0.0222027 
0.0421173 0.0667477 0.0322049 0.0377877 0.0477772 
0.0672032 0.0672967 0.0125873 0.0326886 0.0133913 
0.0126127 0.0553815 0.0545468 0.029505 0.0639314 
0.0355296 0.0206245 0.0343814 0.018902 0.0598939 
0.0171158 0.044375 0.045627 0.0303415 0.0636227 
0.0494517 0.0249563 0.0393434 0.0593812 0.0406116 
0.0505902 0.0179067 0.0628895 0.0627087 0.0248495 
0.0632608 0.0264799 0.0216868 0.0384827 0.0518159 
0.0229921 0.0333925 0.0282376 0.0364318 0.0414788 
0.0537051 0.0314226 0.0486292 0.0575983 0.0586286 
0.0435586 0.0465816 0.0081473 0.0125732 0.0174806 
0.0224555 0.0274608 0.0324548 0.0374453 0.0424316 
0.0474106 0.052388 0.0573832 0.0624262 0.0675113 
0.0723628 0.0766016 0.0755929 0.0758181 0.0757479 
0.0756651 0.0756727 0.075762 0.0759084 0.0755402 
0.0757835 0.00706306 0.0174327 0.0274061 0.0373642 
0.0473437 0.0573189 0.067246 0.00433442 0.0043048 
0.0043728 0.00443378 0.00442976 0.00441256 0.00437765 
0.00413416 0.00477061 0.0756854 0.075533 0.0758591 
0.0756662 0.0756956 0.0758628 0.0757848 0.0323886 
0.0124082 0.0224161 0.0423477 0.0523318 0.0623034 
0.0717394 0.00443722 0.00432756 0.00441469 0.00443529 
0.00442723 0.00439014 0.0043028 0.0713464 0.0148837 
0.0198814 0.024943 0.0299255 0.0349034 0.0398819 
0.0448425 0.0497813 0.0547125 0.0596866 0.0648307 
0.0705576 0.0715175 0.0713392 0.0713332 0.0704117 
0.0248006 0.0715865 0.071576 0.07185 0.0546145 
0.0197955 0.0714056 0.0446616 0.0397023 0.0148649 
0.034719 0.0718737 0.00929294 0.0646831 0.00859322 
0.0713937 0.0087979 0.00887377 0.00885766 0.00881748 
0.00881046 0.0718415 0.00996794 0.071332 0.049632 
0.0713897 0.0297634 0.0595844 0.00854071 0.00886314 
0.00869224 0.00886515 0.00885463 0.00875821 0.00857761 
0.00796572 0.0682611 0.0225184 0.0274222 0.032357 
0.0373388 0.0422931 0.0472065 0.0520683 0.0568856 
0.0617147 0.0666581 0.0670182 0.0130232 0.0220927 
0.0131941 0.0468895 0.0671421 0.0133069 0.0671176 
0.0129276 0.0666708 0.0677945 0.017043 0.0370156 
0.0675355 0.0616886 0.0320345 0.0132986 0.0669974 
0.0133201 0.0133118 0.0128162 0.0567737 0.0518293 
0.0670219 0.0270931 0.0680608 0.0419698 0.0136707 
0.0669935 0.0670135 0.0171757 0.0131492 0.0125506 
0.0133396 0.0133028 0.0122023 0.0675304 0.0297541 
0.0347961 0.0397496 0.0446635 0.0495121 0.054255 
0.0588564 0.0633492 0.0242852 0.0628512 0.0627499 
0.0177389 0.0177718 0.0178363 0.0178074 0.0193199 
0.0625335 0.0627142 0.017857 0.0169456 0.0342793 
0.0627075 0.0626619 0.0639943 0.0174223 0.0169668 
0.0588243 0.017757 0.0292436 0.0647308 0.0441502 
0.0178329 0.0205976 0.0174859 0.0637711 0.0626877 
0.0629668 0.0392592 0.0249284 0.0537802 0.0215497 
0.0372264 0.0421197 0.0469915 0.0518164 0.0564555 
0.0608207 0.0313785 0.0261956 0.0489322 0.0415281 
0.0212899 0.0591826 0.0575479 0.0583134 0.0267029 
0.0221204 0.0222809 0.0584853 0.0584741 0.0585421 
0.022342 0.0463155 0.0365078 0.0505833 0.058324 
0.0322538 0.0222691 0.0583706 0.0224499 0.0543419 
0.0222023 0.0225196 0.0224769 0.0438969 0.0279031 
0.0444054 0.0493648 0.0347264 0.051807 0.053786 
0.0266568 0.053924 0.0338465 0.0268774 0.0389079 
0.0491998 0.0543431 0.0395204 0.0267594 0.0540075 
0.030308 0.054476 0.0267536 0.0543147 0.0266024 
0.0366857 0.0276973 0.0496161 0.0541357 0.0319603 
0.0466526 0.0416697 0.0488137 0.0316057 0.0499438 
0.0497438 0.0305903 0.0411969 0.0314235 0.0452492 
0.0507574 0.0313837 0.0369063 0.0502615 0.0336304 
0.035689 0.0455313 0.0438632 0.0408287 0.0452902 
0.0309644 0.0465264 0.0387841 0.045836 0.0366194 
0.0355994 0.0417534 0.0407401 0.0411759 
8.83166e-05 7.68571e-05 7.44128e-05 7.468e-05 
7.50128e-05 7.48298e-05 7.4818e-05 7.40031e-05 7.41921e-05 
0.000116622 0.000122439 0.000125633 0.000125409 0.000124703 
0.000108805 0.000122285 0.000124352 0.000124015 0.000125129 
0.000125514 0.000125972 0.000123873 0.000136019 0.000121326 
0.000124096 0.000123625 0.000124267 0.000106782 9.74189e-05 
0.000122341 0.000102047 7.60622e-05 0.000101428 7.44286e-05 
7.49315e-05 7.49584e-05 7.47109e-05 7.43213e-05 0.00010099 
7.32028e-05 0.000124172 0.000125759 0.00012474 0.000124414 
0.000125896 0.000123383 0.000125111 0.000101974 0.000114947 
0.000122253 0.00012404 0.000124733 0.000125412 0.000125182 
0.000125407 0.000126494 0.000125838 0.000123837 0.000123681 
0.000129857 0.000101087 0.000126878 0.000101176 0.000100968 
0.000100977 0.000100746 9.71734e-05 0.000123007 0.000122728 
0.000122 0.000122262 0.000122172 0.000122167 0.000123248 
0.000123962 0.000123687 0.000119341 9.92254e-05 0.000122317 
0.000122246 0.000122113 0.000122321 0.000122036 0.000124239 
0.000123662 0.000101053 0.000101455 0.00012272 0.000122475 
0.000122998 0.000121719 0.000121096 0.000116059 0.000124208 
0.000110721 0.000110591 0.00010953 0.000124173 0.00011056 
0.000128215 0.000129417 0.000125781 0.000110191 0.000129295 
0.000102698 0.000125109 0.000124599 0.000122981 0.0001237 
0.000125129 0.000124831 0.000124535 0.00013069 0.000122169 
0.000109986 0.000128539 0.00010487 0.000125411 0.000117052 
0.000125297 0.000122099 0.000126053 0.000125388 0.000126348 
0.000123327 0.00013109 0.000144653 0.000123848 0.000122992 
0.000110638 0.000128955 0.000115257 0.000130999 0.000108481 
0.000130333 0.000110826 0.000128708 0.000124873 0.000122512 
0.00012256 0.000124245 0.000132589 0.000113548 0.000129463 
0.000122285 0.000121207 0.000120833 0.00012859 0.000121709 
0.000129715 0.000128887 0.000129767 0.000125359 0.000122376 
0.000126036 0.000127042 0.000125883 0.000122496 0.00012178 
0.000126504 0.000117075 0.000114601 0.000123937 0.000129584 
0.000118862 0.00012933 0.000123803 0.000122749 0.000124514 
0.000124818 0.00012214 0.000125199 0.000122099 0.000122261 
0.000122154 0.000122842 0.000122427 0.000129753 0.000126321 
0.00011948 0.000120277 0.000125141 0.000117559 0.000126433 
0.000125966 0.000118433 0.000124084 0.000123779 0.000123802 
0.000126929 0.00012608 0.000127142 0.000124027 0.000124242 
0.000125725 0.00012569 0.000114911 0.000130878 0.000131267 
0.000125975 0.000129136 0.000120206 0.000119857 0.000128552 
0.000123183 0.00012112 0.000120091 0.000128415 0.000118814 
0.000120088 0.000125597 0.000119885 0.000128283 0.000126211 
0.000121965 0.000125998 0.000122459 0.000124877 0.000124163 
0.000126376 0.000122206 0.000125118 0.000122873 0.000121279 
0.000128375 0.00012819 0.000122352 0.000120153 0.000127694 
0.00013857 0.000125938 0.00012472 0.000123033 0.000124161 
0.000116454 0.000127245 0.000123347 0.000129634 0.000122081 
0.000115883 0.000121705 0.000121862 0.000129974 0.00011657 
0.000119491 0.000125676 0.000120276 0.000131116 0.000121087 
0.000135819 0.000126223 0.000126641 0.000115065 0.000121468 
0.000127137 0.000114957 0.000127127 0.000121651 0.000124537 
0.000123931 0.000120954 0.000125889 0.000126861 0.000121508 
0.000119937 0.000112937 0.000120591 0.000128567 0.000123575 
0.000125205 0.000121162 0.000121264 0.000127386 0.000117996 
0.000124766 0.000129666 0.000126453 0.000121636 0.000125555 
0.000121235 0.000117477 0.000128083 0.000124084 0.000124883 
0.000134989 0.000124628 0.00012592 0.000121624 0.000118976 
0.000123229 0.000121804 0.000118246 0.000119969 0.000114142 
0.000118599 0.000124559 0.000129723 0.00012784 0.000131177 
0.00012149 0.000119083 0.000117999 0.000124907 0.000132587 
0.000130488 0.000126459 0.000126884 0.000123711 0.000129062 
0.000128949 0.000130837 0.000128116 0.000121235 0.000129261 
0.000122168 0.000120825 0.000122516 0.00012172 0.000126789 
0.000122565 0.000123686 0.000126025 0.00012542 0.000120533 
0.000128978 0.000125449 0.000126232 0.000120579 0.000118877 
0.000119038 0.000129011 0.000126392 0.000125976 0.000122993 
0.000121461 0.000127466 0.000120538 0.000129146 0.000120981 
0.000117571 0.000132153 0.000126231 0.000127371 0.000126981 
0.000117903 0.000127188 0.000127185 0.000120558 0.000121223 
0.000123246 0.000121615 0.000129821 0.000125482 0.000120727 
0.000124241 0.000122149 0.000138145 0.000117371 0.000115115 
0.00012312 0.000122535 0.000128782 0.000119118 0.000126597 
0.000119229 0.000130002 0.000117222 0.000130201 0.000117331 
0.000129936 0.000117511 0.000129832 0.000117699 0.000129638 
0.000119638 0.000129355 0.000120115 0.000129573 0.000120177 
0.000129825 0.000119656 0.000130581 0.000118064 0.000128224 
0.000111757 0.000112965 0.000125055 0.000116587 0.000122991 
0.000125835 0.000125644 0.000125693 0.000125806 0.000125454 
0.000124748 0.000125983 0.000126416 0.000126056 0.000134481 
0.000108279 0.000124305 0.000127041 0.000128096 0.000126335 
0.000125969 0.000125147 0.000124267 0.000119708 0.000126201 
0.000124258 0.000124014 0.000123709 0.000123384 0.000123378 
0.000124079 0.000128046 0.000131653 0.000125866 0.000139993 
0.000135765 0.000122946 0.00012561 0.000124963 0.00012484 
0.000126278 0.000125887 0.000123298 0.000125769 0.000125732 
0.000124996 0.000125023 0.000116798 0.000130443 0.000123829 
0.000126996 0.000126663 0.000123319 0.000126159 0.000125545 
0.000124968 0.00012679 0.000126022 0.000124191 0.000123889 
0.000123526 0.000123325 0.000123615 0.000125193 0.000121865 
0.000112502 0.000123434 0.000123635 0.000124581 0.000122909 
0.000122097 0.000122993 0.000123301 0.000123932 0.000124533 
0.000123382 0.000124013 0.00012387 0.000123969 0.000123704 
0.000122476 0.000124247 0.000123635 0.000124378 0.000121601 
0.000123899 0.000123924 0.000123895 0.00012387 0.000123551 
0.000120464 0.000120593 0.000124109 0.000122517 0.000123464 
0.000123009 0.00012144 0.000123049 0.000121848 0.000117685 
0.000124666 0.00012231 0.000118776 0.000129612 0.000117991 
0.000130995 0.000118336 0.000130489 0.000118224 0.000129838 
0.000118244 0.000129789 0.000118448 0.000129527 0.00011872 
0.000129109 0.000119185 0.0001287 0.000119408 0.000128653 
0.000123394 0.000129805 0.000116772 0.00013525 0.00012962 
0.000125408 0.000124625 0.000123553 0.000124437 0.000125514 
0.000132345 0.000127334 0.000124017 0.00012464 0.000123487 
0.000124379 0.000125742 0.000122246 0.000124463 0.000125047 
0.000125564 0.000125428 0.000122996 0.000127131 0.00012193 
0.000125293 0.000122798 0.000125079 0.000121106 0.000126304 
0.000123154 0.000124311 0.00013201 0.000124401 0.000123401 
0.000134441 0.00012431 0.000124125 0.0001238 0.000123854 
0.000124112 0.000123383 0.000124639 0.000133447 0.000121397 
0.00012208 0.000124509 0.000123645 0.000135158 0.000125073 
0.000123404 0.000112963 0.000123923 0.00013754 0.000125674 
0.000121353 0.000124791 0.000131706 0.000123709 0.000122496 
0.000114786 0.000128986 0.000115077 0.000123212 0.000123233 
0.000118809 0.000127571 0.000126094 0.000123691 0.000123468 
0.000124258 0.000124282 0.000124347 0.000123994 0.000124335 
0.000123961 0.0001238 0.000123899 0.000123798 0.000124796 
0.000124572 0.000115205 0.000138509 0.000121864 0.000123729 
0.000124242 0.00012401 0.000116878 0.000124503 0.000124129 
0.000123089 0.000116931 0.000124435 0.000123998 0.00012414 
0.000126148 0.000122469 0.000122511 0.000123914 0.000118145 
0.000125899 0.00011821 0.000129759 0.000118442 0.000129508 
0.000118889 0.000128965 0.000119407 0.000128131 0.000119775 
0.00012713 0.000119859 0.000126263 0.000121377 0.000119911 
0.000125476 0.000124823 0.000123424 0.000125477 0.000123716 
0.000123087 0.000125573 0.000124214 0.00012357 0.000123701 
0.000124579 0.000124444 0.000131758 0.000129566 0.000133951 
0.000121983 0.000118466 0.000124584 0.000122071 0.000125124 
0.000124299 0.000115972 0.000121616 0.000123804 0.000125507 
0.000124557 0.000122915 0.000124435 0.000124423 0.000124057 
0.000123532 0.000124476 0.00012441 0.000124609 0.000123131 
0.000124671 0.000124815 0.000123794 0.000124088 0.000124608 
0.000123425 0.000123767 0.000122919 0.000122636 0.000123667 
0.000125319 0.000123485 0.000122404 0.000130555 0.000123189 
0.000124867 0.000123038 0.000123857 0.000123542 0.000124262 
0.000123181 0.000123179 0.000124456 0.000116722 0.000123978 
0.000124303 0.000123903 0.000123823 0.000131506 0.000123762 
0.000126835 0.000123681 0.000121494 0.000115739 0.000124008 
0.000124072 0.000125022 0.00012235 0.000123931 0.000128887 
0.000124503 0.000126536 0.000124458 0.000128988 0.000116386 
0.000118878 0.000118037 0.000129862 0.000118421 0.000129463 
0.000118979 0.000129038 0.000119663 0.000128234 0.00012037 
0.00012684 0.000120664 0.000124891 0.000119133 0.000121391 
0.00012284 0.000124589 0.000125392 0.000128668 0.000124753 
0.000124681 0.000123301 0.000124249 0.000123245 0.00011835 
0.000126518 0.000122614 0.000125421 0.000124111 0.000124006 
0.00012456 0.000124038 0.000123564 0.000126679 0.000124317 
0.000124531 0.000123859 0.000124426 0.000124236 0.000124195 
0.000123935 0.000127176 0.000124797 0.00012503 0.000118105 
0.000124255 0.000125724 0.000116515 0.000121783 0.000123741 
0.000123538 0.000124559 0.000123315 0.00012287 0.000120754 
0.000114871 0.000125642 0.000122976 0.000124876 0.000115144 
0.00012249 0.000123714 0.000129788 0.00012608 0.000117838 
0.000125141 0.000123183 0.000117784 0.000125234 0.000122161 
0.00012288 0.000124797 0.000120222 0.000134997 0.000125149 
0.000121769 0.000125751 0.000123572 0.000123514 0.000122864 
0.000123203 0.000121508 0.000119533 0.000124344 0.000131027 
0.000118028 0.000118999 0.000129033 0.000119799 0.000128577 
0.000120389 0.000128637 0.000121085 0.000126161 0.000120616 
0.000120168 0.000124998 0.000122541 0.000122768 0.000121934 
0.000122915 0.000126631 0.000128063 0.000125728 0.000123926 
0.000140443 0.000128113 0.000127012 0.000130573 0.000129751 
0.000125721 0.000116065 0.000124811 0.000128637 0.000129133 
0.000125358 0.000117886 0.000122638 0.000124495 0.000128106 
0.000126438 0.000124727 0.000124736 0.000124055 0.000121716 
0.000121734 0.000126263 0.000132896 0.000125707 0.000115165 
0.000133263 0.000124608 0.000115505 0.000133815 0.000123392 
0.00012516 0.000126439 0.00011882 0.000125011 0.000116611 
0.000125172 0.000123627 0.000124885 0.000124184 0.000124285 
0.000124945 0.000121138 0.000126544 0.000131692 0.000123237 
0.000125368 0.000122101 0.000122812 0.000120666 0.00012722 
0.000124496 0.000122523 0.000123888 0.000132809 0.000130321 
0.000125635 0.000122261 0.000123804 0.000116919 0.000120095 
0.000124143 0.000128879 0.000117426 0.000121451 0.000131651 
0.000124138 0.00012241 0.000120875 0.000119118 0.000124093 
0.000127121 0.000117969 0.000126882 0.000123243 0.000122263 
0.000127358 0.000122082 0.000124275 0.000124769 0.000118881 
0.000112436 0.000121041 0.000133854 0.000116948 0.000128563 
0.00011941 0.000123335 0.000126035 0.0001337 0.000114655 
0.000128382 0.000119148 0.000123641 0.000123492 0.000120078 
0.000119252 0.000123244 0.00012033 0.000124541 0.000122296 
0.000125174 0.000124819 0.000125517 0.000122865 0.000126779 
0.000129236 0.000127022 0.000121849 0.000119758 0.000129177 
0.000127837 0.0001244 0.000131022 0.000125605 0.000128157 
0.000120011 0.000121583 0.00012834 0.00012764 0.000126657 
0.000123824 0.000109452 0.000125402 0.00013285 0.000128783 
0.000128955 0.000127531 0.00012367 0.000126178 0.000126816 
0.000123081 0.000127935 0.000130556 0.000133417 0.000122298 
0.000117287 0.000135763 0.000125352 0.000117461 0.000123011 
0.000123192 0.000118179 0.000124846 0.000126172 0.000131626 
0.000120754 0.000111792 0.000123122 0.000126022 0.000120736 
0.000128553 0.000125981 0.000125228 0.000131161 0.000120416 
0.000127965 0.000118058 0.000120319 0.000121261 0.000132007 
0.000127472 0.000127092 0.00012119 0.000119939 0.000115086 
0.000113013 0.000128472 0.000115645 0.000125906 0.000113566 
0.000129708 0.000121972 0.000118803 0.000121752 0.000127845 
0.000123317 0.000114277 0.000121711 0.000122493 0.000131756 
0.000123347 0.000122014 0.0001266 0.000127114 0.000127725 
0.00012506 0.000129836 0.000128575 0.000120051 0.000128108 
0.000130748 0.000134864 0.000129788 0.00012191 0.000116687 
0.000118526 0.000125386 0.000112441 0.000127615 0.000126493 
0.000126276 0.000127535 
771.512 1000.46 1002.66 1001.4 
1001.87 1001.4 1001.34 1001.17 1007.54 
883.278 866.337 863.626 861.693 867.9 
1094.85 1098.8 1098.78 1099.12 1099.53 
1099.54 1099.43 1099.18 1043.48 1094.34 
1098.2 1098.19 1098.3 1036.98 1072.98 
1098.66 1072.86 1005.03 1073.21 1000.86 
1001.78 1001.68 1001.13 1003.31 1073.51 
1001.75 1033.7 861.256 1036.99 870.207 
1036.02 1032.88 864.186 1073.76 860.691 
1099.26 1099.16 1099.48 1099.55 1099.25 
1099.39 1099.45 1098.52 1098.2 1098.17 
1098.61 1073.64 1031.06 1073.67 1073.55 
1073.47 1073.65 1070.48 1033.47 1097.86 
1097.67 1097.72 1097.77 1097.81 1097.84 
1098.29 1098.27 1097.5 1072.75 1097.73 
1097.73 1097.73 1097.9 1097.96 1098.36 
1098.24 1073.67 1073.67 1097.83 1097.96 
1034.51 1097.84 1097.37 1092.48 1098.63 
1091.08 1091.08 1090.68 1093.1 1090.98 
1094.12 1095.03 1099 1090.9 1098.79 
1081.76 1093.22 1093.18 1097.58 1097.7 
1093.36 1097.9 1094.74 1098.96 1098.02 
1090.93 1098.67 1066.34 1093.57 1096.34 
1098.93 1097.6 1099.03 1098.79 1099.05 
1098.01 1094.02 1101.79 1098.3 1098.04 
1091.06 1098.8 1091.91 1098.95 1090.37 
1099.39 1091.13 1098.75 1098.74 1097.71 
1097.53 1094.74 1097.55 1095.74 1098.69 
1097.45 1098.14 1093.62 1098.76 1097.54 
1098.92 1098.73 1098.76 1098.6 1097.64 
1098.99 1099.13 1099.01 1097.74 1097.98 
1099 1097.04 1096.53 1098.28 1099.14 
1097.16 1098.59 1098.34 1097.8 1098.44 
1098.46 1097.59 1098.54 1097.73 1097.6 
1097.77 1098.16 1097.95 1099.67 1098.64 
1096.83 1096.89 1098.9 1096.73 1099.5 
1099.03 1096.4 1097.52 1098.37 1098.24 
1098.83 1098.98 1099.18 1098.05 1098.42 
1098.64 1098.81 1095.48 1099.43 1100.24 
1098.7 1098.93 1096.87 1096.8 1099.67 
1098.42 1097.46 1096.86 1099.53 1097.23 
1097.71 1099.05 1096.8 1099.45 1099.07 
1097.51 1099.01 1097.59 1098.4 1098.48 
1098.65 1097.54 1098.67 1098.07 1097.54 
1099.57 1099.47 1097.62 1097.57 1099.67 
1101.15 1099.03 1097.81 1097.73 1098.52 
1096.54 1098.32 1098.31 1099.21 1097.64 
1097.06 1097.52 1097.51 1099.44 1097.09 
1097.63 1098.86 1096.74 1099.66 1097.23 
1100.42 1098.22 1099.17 1096.97 1097.3 
1099.14 1096.42 1099 1097.24 1097.9 
1098.05 1097.16 1099.02 1099.2 1097.4 
1096.91 1095.88 1097 1099.56 1099.07 
1098.96 1097.41 1097.26 1099.29 1096.29 
1097.91 1099.11 1099.13 1097.36 1098.92 
1097.16 1097.3 1099.03 1098.23 1098.63 
1099.94 1098.72 1098.67 1097.37 1097.53 
1098.25 1097.59 1097.08 1097.45 1096.48 
1097.59 1098.69 1099.49 1099.42 1099.46 
1097.29 1097.37 1096.7 1098.05 1099.89 
1099.11 1098.64 1099.24 1097.81 1098.89 
1099.33 1099.96 1099.44 1097.21 1099.66 
1097.44 1097.08 1097.62 1097.42 1099.37 
1098.51 1097.88 1099.08 1099.02 1097.1 
1098.85 1099.12 1098.95 1098.15 1096.86 
1097.23 1099.51 1099.3 1099.08 1098.61 
1097.34 1099.35 1097.03 1099.94 1097.2 
1096.96 1099.49 1098.4 1099.48 1099.36 
1097.77 1099.5 1099.57 1097.22 1097.21 
1097.73 1097.47 1098.87 1098.93 1097.05 
1098.92 1097.82 1100.64 1096.85 1095.65 
1097.66 1097.64 1099.67 1096.75 1099.53 
1096.74 1100.17 1096.25 1100.14 1096.29 
1099.99 1096.35 1099.96 1096.41 1099.91 
1096.88 1099.85 1097.01 1099.93 1096.91 
1099.93 1096.68 1099.62 1096.4 1100.72 
1015.9 822.603 1090.72 884.935 867.106 
859.909 862.061 864.864 864.619 861.44 
856.424 868.775 859.845 1033.3 1019.78 
1094.75 1098.08 1098.42 1098.34 1098.33 
1098.27 1098.14 1097.94 1097.99 1098.41 
1098.27 1098.27 1098.22 1098.16 1098.16 
1098.28 1098.76 1099.16 1098.49 1101.12 
1044.07 1033.68 864.162 1036.94 869.048 
1034.89 858.387 1034.31 864.849 863.783 
857.919 860.877 1095.93 1098.91 1032.47 
1098.43 1098.35 1097.71 1098.3 1098.2 
1098.11 1098.3 1098.64 1098.29 1098.25 
1098.19 1098.15 1098.2 1098.47 1035.17 
1096.33 1034.46 1034.05 1031.74 1032.17 
1097.54 1097.71 1097.77 1097.85 1097.83 
1098.21 1098.34 1098.31 1098.33 1098.28 
1098.07 1030.94 1097.81 1097.92 1097.91 
1098.31 1098.32 1098.32 1098.31 1098.25 
1097.7 1097.59 1033.14 1032.56 1034.39 
1097.61 1097.47 1097.73 1097.93 1096.58 
1093.4 1097.51 1096.52 1099.86 1096.37 
1099.42 1096.53 1099.45 1096.52 1099.97 
1096.54 1099.96 1096.6 1099.9 1096.69 
1099.79 1096.85 1099.67 1096.92 1099.57 
1097.81 1099.87 1095.14 1100.23 1091.05 
1093.15 1093.43 1097.7 1093.42 1095.04 
1099.25 1098.82 1092.83 1093.24 1092.57 
1098.66 1098.87 1097.72 1093.22 1097.91 
1098.86 1098.83 1097.89 1099.07 1097.66 
1098.81 1097.85 1092.82 1097.24 1099.1 
1098.39 1098.35 1094.25 1093.36 1097.68 
1100.11 1098.37 1098.34 1098.28 1098.3 
1098.39 1092.37 1097.8 1100.1 1097.49 
1097.61 1093.42 1097.72 1099.75 1098.78 
1097.97 1095.61 1097.75 1099.24 1097.97 
1097.3 1093.67 1099.82 1097.74 1097.5 
1095.6 1100.23 1096.61 1097.92 1097.95 
1097.07 1094.87 1098.06 1098.53 1098.05 
1098.39 1098.37 1098.36 1098.34 1098.4 
1098.31 1098.29 1098.28 1098.01 1098.59 
1097.85 1096.99 1101.27 1098.04 1098.29 
1098.38 1098.34 1096.41 1098.4 1098.34 
1097.88 1097.05 1098.42 1098.34 1098.36 
1098.25 1097.84 1097.77 1098.67 1096.54 
1099.3 1096.52 1099.96 1096.59 1099.89 
1096.71 1099.78 1096.88 1099.61 1097.05 
1099.36 1097.29 1099.1 1097.78 1097.87 
1098.9 1098.56 1098.06 1098.85 1098.29 
1098.19 1098.87 1098.54 1098.26 1098.29 
1098.53 1098.36 1099.53 1100 1099.99 
1097.94 1097.09 1098.65 1097.81 1098.79 
1098.67 1096.78 1097.82 1098.58 1098.36 
1098.68 1097.87 1098.4 1098.49 1098.32 
1098.23 1098.42 1098.45 1098.44 1098.45 
1098.07 1098.75 1098.1 1098.12 1098.51 
1098.13 1099.58 1097.92 1097.94 1098.04 
1098.82 1098 1097.88 1099.29 1098.77 
1098.59 1098.06 1098.21 1098.14 1098.49 
1097.94 1097.53 1098.39 1096.6 1098.34 
1098.37 1098.21 1098.31 1099.93 1098.27 
1098.98 1097.69 1097.53 1097 1098.37 
1098.35 1098.53 1097.68 1098.24 1099.2 
1098.44 1098.72 1098.42 1099.13 1096.9 
1096.61 1096.5 1100.06 1096.58 1099.91 
1096.71 1099.79 1096.89 1099.65 1097.13 
1099.45 1097.35 1099.1 1097.25 1098.18 
1098.64 1098.67 1098.7 1099.15 1098.53 
1098.44 1098.18 1098.37 1098.25 1097.49 
1099.08 1097.88 1098.76 1098.32 1098.47 
1098.43 1098.36 1098.27 1098.18 1098.63 
1098.51 1098.21 1098.51 1098.26 1098.26 
1098.43 1098.52 1098.42 1098.54 1097.41 
1098.13 1098.62 1097.01 1097.66 1098.25 
1098.26 1098.43 1098.44 1097.86 1097.14 
1096.36 1098.86 1098.15 1098.48 1097.05 
1098.11 1098.35 1099.29 1098.72 1097.18 
1098.62 1097.93 1097.4 1098.55 1098.31 
1098.48 1098.34 1097.91 1099.98 1098.77 
1097.42 1098.7 1098.54 1098.07 1098.01 
1097.94 1097.76 1097.27 1098.12 1099.21 
1096.42 1096.71 1099.7 1096.83 1099.64 
1096.96 1099.15 1097.12 1099.88 1097.13 
1097.28 1098.3 1098.28 1097.94 1098.15 
1097.89 1099.08 1098.9 1098.77 1098.08 
1101.32 1098.84 1099.32 1099.36 1098.96 
1098.75 1096.6 1097.91 1098.57 1099.23 
1098.56 1096.65 1098.04 1098.96 1098.79 
1098.61 1098.53 1098.5 1098.24 1097.78 
1098.25 1098.68 1099.87 1098.73 1095.43 
1099.56 1098.67 1095.14 1099.76 1097.98 
1098.66 1098.62 1097.5 1098.64 1096.06 
1098.57 1098.22 1098.57 1098.27 1098.36 
1098.5 1098.04 1098.31 1099.58 1098.16 
1098.57 1098.06 1097.87 1097.63 1098.86 
1098.45 1098.06 1098.18 1099.92 1099.36 
1098.67 1097.93 1099.78 1096.66 1096.99 
1098.03 1099.91 1097.17 1097.61 1099.21 
1098.24 1098.87 1097.9 1097.43 1098.36 
1099.03 1097.23 1099.04 1098.38 1097.86 