
TITLE     = "DG2D to Tecplot"
VARIABLES = "X"
"Y"
"RHO"
"U"
"V"
"VELOCITY_MAG"
"P"
"T"
"THETA1"
"THETA2"
ZONE T="ZONE 1"
STRANDID=0
ZONETYPE=FEQuadrilateral
DATAPACKING=BLOCK
VARLOCATION=([3-10]=CELLCENTERED)
DT=(SINGLE SINGLE SINGLE SINGLE SINGLE SINGLE SINGLE SINGLE SINGLE SINGLE)

Nodes=548, Elements=1006
0.05 0.05 -3.88578e-16 -3.88578e-16 
0.14 0.14 -3.88578e-16 -3.88578e-16 -3.88578e-16 
-3.88578e-16 -3.88578e-16 -3.88578e-16 -3.88578e-16 -3.88578e-16 
-3.88578e-16 -3.88578e-16 -3.88578e-16 -3.88578e-16 -3.88578e-16 
-3.88578e-16 -3.88578e-16 0.045 0.04 0.035 
0.03 0.025 0.02 0.015 0.01 
0.005 0.05 0.05 0.05 0.05 
0.05 0.05 0.05 0.05 0.05 
0.05 0.05 0.05 0.05 0.05 
0.05 0.005 0.01 0.015 0.02 
0.025 0.03 0.035 0.04 0.045 
0.135 0.13 0.125 0.12 0.115 
0.11 0.105 0.1 0.095 0.09 
0.085 0.08 0.075 0.07 0.065 
0.06 0.055 0.14 0.14 0.14 
0.14 0.14 0.14 0.14 0.14 
0.14 0.14 0.14 0.14 0.14 
0.14 0.14 0.055 0.06 0.065 
0.07 0.075 0.08 0.085 0.09 
0.095 0.1 0.105 0.11 0.115 
0.12 0.125 0.13 0.135 0.00441872 
0.00441736 0.004436 0.00447963 0.00443661 0.00442809 
0.00446324 0.0431093 0.0326026 0.0225849 0.012701 
0.0456369 0.0455014 0.0454191 0.0454932 0.0455855 
0.045728 0.0455948 0.00686385 0.0173913 0.0275096 
0.0374057 0.00459018 0.00438888 0.00447111 0.00446296 
0.00440999 0.00444058 0.0041588 0.0275527 0.0378107 
0.0176153 0.00824326 0.0454589 0.0454265 0.04545 
0.0455365 0.045657 0.0457159 0.0458195 0.0121629 
0.0224825 0.0324913 0.0418324 0.00884743 0.0407955 
0.00896493 0.00883337 0.00884395 0.0202569 0.0089191 
0.00960327 0.00913755 0.0409532 0.00891496 0.0299881 
0.0251115 0.0351123 0.0407922 0.0406239 0.00869536 
0.0152134 0.040863 0.0411027 0.0413788 0.0414018 
0.0147973 0.0250314 0.035068 0.00897282 0.00884337 
0.00878903 0.00894468 0.0408949 0.0412111 0.0411742 
0.0410198 0.0415391 0.0199257 0.0300758 0.0181923 
0.0375368 0.0321532 0.0131811 0.0134605 0.0361954 
0.01281 0.0365476 0.0132023 0.0138665 0.0276681 
0.0224389 0.0368659 0.0372007 0.01732 0.0364307 
0.0130739 0.0369863 0.013514 0.0134359 0.0360531 
0.0135036 0.0133544 0.0133615 0.0364685 0.0366656 
0.0228464 0.0274905 0.0372549 0.0363487 0.0327417 
0.0127553 0.0325643 0.0180184 0.0177933 0.0339523 
0.0318517 0.0170449 0.0179754 0.030792 0.0332087 
0.0195711 0.0181048 0.0320417 0.0316947 0.0164669 
0.0181104 0.0313771 0.0180654 0.0173838 0.0319544 
0.0321959 0.0248135 0.0206575 0.0253095 0.0174691 
0.029892 0.0221651 0.0214055 0.0273201 0.0228112 
0.0263727 0.0271974 0.0269534 0.0226528 0.0227146 
0.0276684 0.0225027 0.0274642 0.0228787 0.0284579 
0.027379 0.0227541 0.0541483 0.054455 0.0544357 
0.0544198 0.0543809 0.0543673 0.0543567 0.0543501 
0.0543497 0.0543572 0.0543884 0.0544802 0.0546144 
0.0542672 0.0534098 0.133037 0.122575 0.112549 
0.102561 0.0925489 0.0826102 0.0726712 0.0625365 
0.057671 0.135875 0.135809 0.135651 0.135618 
0.135581 0.135408 0.135325 0.0568516 0.0673419 
0.07744 0.0874743 0.0975143 0.107513 0.117415 
0.126932 0.131627 0.107566 0.127754 0.11752 
0.0975524 0.0875651 0.077664 0.0676187 0.135623 
0.135945 0.135709 0.135614 0.135497 0.13535 
0.135691 0.0621381 0.0724076 0.0824555 0.0924955 
0.102523 0.11248 0.122242 0.0900736 0.0588264 
0.0589122 0.058766 0.0587489 0.0587265 0.0587067 
0.058704 0.0587099 0.0587266 0.0587989 0.0590518 
0.0596068 0.125008 0.095086 0.105152 0.130493 
0.131338 0.0802277 0.115121 0.0704073 0.130889 
0.131483 0.0851154 0.131225 0.131239 0.13172 
0.131219 0.119963 0.0591113 0.13068 0.0698001 
0.110174 0.0798781 0.0899655 0.100058 0.110037 
0.119878 0.075371 0.132083 0.100117 0.131105 
0.0652927 0.131244 0.130709 0.0647365 0.0849132 
0.0748443 0.0950184 0.105071 0.114964 0.124499 
0.128582 0.122093 0.0630798 0.0631493 0.063128 
0.0630706 0.0630644 0.0630797 0.0630909 0.0630964 
0.063189 0.0637306 0.092579 0.11746 0.127108 
0.112589 0.126825 0.112912 0.107676 0.082599 
0.0722022 0.126137 0.068421 0.127289 0.126817 
0.117795 0.125898 0.126773 0.0822879 0.102721 
0.0924919 0.102661 0.0672228 0.126001 0.126534 
0.0976452 0.126867 0.0731853 0.126866 0.122837 
0.0875439 0.107828 0.0638334 0.0772251 0.0627122 
0.0873865 0.0975919 0.12775 0.077822 0.0676322 
0.0674369 0.0674204 0.0674561 0.0675016 0.0675031 
0.0674343 0.0674297 0.122561 0.0798409 0.0951369 
0.0795371 0.100256 0.0899086 0.110402 0.123089 
0.0848519 0.110663 0.0847166 0.119458 0.122296 
0.100234 0.105388 0.121375 0.0744351 0.0694379 
0.120161 0.0950916 0.122245 0.0711932 0.122508 
0.105386 0.0670457 0.115171 0.0752135 0.0900238 
0.116093 0.122451 0.0675702 0.12169 0.0714485 
0.0717484 0.0718188 0.0719091 0.0719968 0.0719489 
0.0716316 0.11751 0.11764 0.122459 0.118168 
0.118519 0.0762931 0.081625 0.0874389 0.0727114 
0.0764926 0.103046 0.113636 0.0976908 0.0926443 
0.113589 0.118124 0.117926 0.118338 0.108093 
0.0717609 0.0925864 0.102799 0.0818851 0.116227 
0.0977945 0.108374 0.087233 0.113929 0.111975 
0.076274 0.0764027 0.0760328 0.0808963 0.085436 
0.0786805 0.110714 0.113032 0.105925 0.113883 
0.11336 0.0766009 0.0761753 0.0953988 0.105258 
0.0758316 0.0903531 0.0901648 0.0951475 0.100543 
0.080513 0.0843652 0.107497 0.100095 0.107818 
0.0806835 0.080691 0.0848378 0.0801522 0.0972823 
0.102259 0.103115 0.110372 0.0983553 0.109151 
0.0884917 0.0930728 0.108961 0.0926068 0.0846292 
0.102984 0.0991606 0.0852298 0.105928 0.104124 
0.0883402 0.0893293 0.0852837 0.0941408 0.095928 
0.0897224 0.0960789 0.100817 0.0906909 
2.27374e-15 0.08 2.27374e-15 0.08 
2.27374e-15 0.08 0.075 0.07 0.065 
0.06 0.055 0.05 0.045 0.04 
0.035 0.03 0.025 0.02 0.015 
0.01 0.005 0.08 0.08 0.08 
0.08 0.08 0.08 0.08 0.08 
0.08 0.005 0.01 0.015 0.02 
0.025 0.03 0.035 0.04 0.045 
0.05 0.055 0.06 0.065 0.07 
0.075 2.27374e-15 2.27374e-15 2.27374e-15 2.27374e-15 
2.27374e-15 2.27374e-15 2.27374e-15 2.27374e-15 2.27374e-15 
0.08 0.08 0.08 0.08 0.08 
0.08 0.08 0.08 0.08 0.08 
0.08 0.08 0.08 0.08 0.08 
0.08 0.08 0.005 0.01 0.015 
0.02 0.025 0.03 0.035 0.04 
0.045 0.05 0.055 0.06 0.065 
0.07 0.075 2.27374e-15 2.27374e-15 2.27374e-15 
2.27374e-15 2.27374e-15 2.27374e-15 2.27374e-15 2.27374e-15 
2.27374e-15 2.27374e-15 2.27374e-15 2.27374e-15 2.27374e-15 
2.27374e-15 2.27374e-15 2.27374e-15 2.27374e-15 0.073068 
0.062485 0.0523731 0.0423956 0.032436 0.0224571 
0.0125876 0.0756118 0.0757056 0.0757568 0.075538 
0.00684692 0.0173529 0.0274681 0.0375397 0.0475266 
0.0574429 0.0673489 0.00434621 0.00436078 0.00444677 
0.00441371 0.067734 0.0573827 0.0473831 0.0374179 
0.0274564 0.0174907 0.00815984 0.0757731 0.0754943 
0.0756791 0.0757735 0.0121385 0.0224228 0.0325115 
0.0425436 0.052485 0.0624263 0.0717924 0.00446898 
0.00440969 0.00441113 0.00413566 0.0649219 0.0248951 
0.0397887 0.0547189 0.0298803 0.0714979 0.0198878 
0.0706789 0.00932699 0.0350954 0.0348322 0.0715723 
0.0715259 0.0713502 0.0705048 0.00907334 0.0597108 
0.0712739 0.0300115 0.0451252 0.0549555 0.0649064 
0.00861035 0.0088934 0.00869946 0.0447738 0.0149144 
0.0249305 0.0497446 0.0198043 0.0500681 0.0147265 
0.0401403 0.0598519 0.00872775 0.00892442 0.0673498 
0.0620638 0.0675375 0.0569997 0.0371363 0.0274877 
0.0618099 0.0428263 0.0273463 0.0172202 0.0135816 
0.0131838 0.0526509 0.0574045 0.012934 0.0171093 
0.0224977 0.0668898 0.0471062 0.0521022 0.0222027 
0.0421173 0.0667477 0.0322049 0.0377877 0.0477772 
0.0672032 0.0672967 0.0125873 0.0326886 0.0133913 
0.0126127 0.0553815 0.0545468 0.029505 0.0639314 
0.0355296 0.0206245 0.0343814 0.018902 0.0598939 
0.0171158 0.044375 0.045627 0.0303415 0.0636227 
0.0494517 0.0249563 0.0393434 0.0593812 0.0406116 
0.0505902 0.0179067 0.0628895 0.0627087 0.0248495 
0.0632608 0.0264799 0.0216868 0.0384827 0.0518159 
0.0229921 0.0333925 0.0282376 0.0364318 0.0414788 
0.0537051 0.0314226 0.0486292 0.0575983 0.0586286 
0.0435586 0.0465816 0.0081473 0.0125732 0.0174806 
0.0224555 0.0274608 0.0324548 0.0374453 0.0424316 
0.0474106 0.052388 0.0573832 0.0624262 0.0675113 
0.0723628 0.0766016 0.0755929 0.0758181 0.0757479 
0.0756651 0.0756727 0.075762 0.0759084 0.0755402 
0.0757835 0.00706306 0.0174327 0.0274061 0.0373642 
0.0473437 0.0573189 0.067246 0.00433442 0.0043048 
0.0043728 0.00443378 0.00442976 0.00441256 0.00437765 
0.00413416 0.00477061 0.0756854 0.075533 0.0758591 
0.0756662 0.0756956 0.0758628 0.0757848 0.0323886 
0.0124082 0.0224161 0.0423477 0.0523318 0.0623034 
0.0717394 0.00443722 0.00432756 0.00441469 0.00443529 
0.00442723 0.00439014 0.0043028 0.0713464 0.0148837 
0.0198814 0.024943 0.0299255 0.0349034 0.0398819 
0.0448425 0.0497813 0.0547125 0.0596866 0.0648307 
0.0705576 0.0715175 0.0713392 0.0713332 0.0704117 
0.0248006 0.0715865 0.071576 0.07185 0.0546145 
0.0197955 0.0714056 0.0446616 0.0397023 0.0148649 
0.034719 0.0718737 0.00929294 0.0646831 0.00859322 
0.0713937 0.0087979 0.00887377 0.00885766 0.00881748 
0.00881046 0.0718415 0.00996794 0.071332 0.049632 
0.0713897 0.0297634 0.0595844 0.00854071 0.00886314 
0.00869224 0.00886515 0.00885463 0.00875821 0.00857761 
0.00796572 0.0682611 0.0225184 0.0274222 0.032357 
0.0373388 0.0422931 0.0472065 0.0520683 0.0568856 
0.0617147 0.0666581 0.0670182 0.0130232 0.0220927 
0.0131941 0.0468895 0.0671421 0.0133069 0.0671176 
0.0129276 0.0666708 0.0677945 0.017043 0.0370156 
0.0675355 0.0616886 0.0320345 0.0132986 0.0669974 
0.0133201 0.0133118 0.0128162 0.0567737 0.0518293 
0.0670219 0.0270931 0.0680608 0.0419698 0.0136707 
0.0669935 0.0670135 0.0171757 0.0131492 0.0125506 
0.0133396 0.0133028 0.0122023 0.0675304 0.0297541 
0.0347961 0.0397496 0.0446635 0.0495121 0.054255 
0.0588564 0.0633492 0.0242852 0.0628512 0.0627499 
0.0177389 0.0177718 0.0178363 0.0178074 0.0193199 
0.0625335 0.0627142 0.017857 0.0169456 0.0342793 
0.0627075 0.0626619 0.0639943 0.0174223 0.0169668 
0.0588243 0.017757 0.0292436 0.0647308 0.0441502 
0.0178329 0.0205976 0.0174859 0.0637711 0.0626877 
0.0629668 0.0392592 0.0249284 0.0537802 0.0215497 
0.0372264 0.0421197 0.0469915 0.0518164 0.0564555 
0.0608207 0.0313785 0.0261956 0.0489322 0.0415281 
0.0212899 0.0591826 0.0575479 0.0583134 0.0267029 
0.0221204 0.0222809 0.0584853 0.0584741 0.0585421 
0.022342 0.0463155 0.0365078 0.0505833 0.058324 
0.0322538 0.0222691 0.0583706 0.0224499 0.0543419 
0.0222023 0.0225196 0.0224769 0.0438969 0.0279031 
0.0444054 0.0493648 0.0347264 0.051807 0.053786 
0.0266568 0.053924 0.0338465 0.0268774 0.0389079 
0.0491998 0.0543431 0.0395204 0.0267594 0.0540075 
0.030308 0.054476 0.0267536 0.0543147 0.0266024 
0.0366857 0.0276973 0.0496161 0.0541357 0.0319603 
0.0466526 0.0416697 0.0488137 0.0316057 0.0499438 
0.0497438 0.0305903 0.0411969 0.0314235 0.0452492 
0.0507574 0.0313837 0.0369063 0.0502615 0.0336304 
0.035689 0.0455313 0.0438632 0.0408287 0.0452902 
0.0309644 0.0465264 0.0387841 0.045836 0.0366194 
0.0355994 0.0417534 0.0407401 0.0411759 
8.7265e-05 7.56284e-05 7.3115e-05 7.33608e-05 
7.36951e-05 7.35059e-05 7.34919e-05 7.26962e-05 7.27864e-05 
0.000116371 0.000122255 0.000125537 0.00012529 0.00012465 
0.000108431 0.000122188 0.000124189 0.000123818 0.000124906 
0.000125318 0.00012583 0.000123781 0.000136382 0.000120947 
0.000124099 0.000123636 0.000124283 0.000105817 9.62346e-05 
0.000122499 0.000100959 7.48007e-05 0.000100291 7.31077e-05 
7.3614e-05 7.36379e-05 7.33839e-05 7.3007e-05 9.97452e-05 
7.19219e-05 0.000124296 0.000125657 0.000124876 0.000124309 
0.000126055 0.000123487 0.000124989 0.000100737 0.000114425 
0.000122115 0.000123858 0.0001245 0.000125197 0.000125039 
0.00012529 0.000126522 0.000125875 0.000123851 0.000123686 
0.000130062 9.98475e-05 0.000126944 9.99348e-05 9.97241e-05 
9.97305e-05 9.94966e-05 9.59231e-05 0.000123099 0.000122882 
0.000122226 0.000122488 0.000122374 0.000122324 0.000123316 
0.000123954 0.00012367 0.000119173 9.80393e-05 0.000122541 
0.000122467 0.000122266 0.000122515 0.000121996 0.000124236 
0.000123629 9.98121e-05 0.000100213 0.000122884 0.000122616 
0.000123091 0.000121699 0.000120972 0.000115738 0.000123998 
0.000110802 0.000110636 0.000109634 0.000124056 0.000110659 
0.000128266 0.000129139 0.000125538 0.000110282 0.000128358 
0.000101872 0.000125069 0.000124542 0.00012304 0.000123766 
0.000125129 0.000124935 0.000124573 0.000130921 0.000122014 
0.000109975 0.000127725 0.000104331 0.000125188 0.000117047 
0.000125047 0.000122326 0.000125815 0.000125243 0.000126098 
0.000123185 0.000131093 0.000145062 0.000123855 0.000122953 
0.000110721 0.000128072 0.000115091 0.000130773 0.000108608 
0.000129401 0.000110898 0.000127834 0.000124691 0.000122647 
0.00012264 0.000123828 0.000132169 0.000113492 0.000128667 
0.000122338 0.000121128 0.00012062 0.000127743 0.000121926 
0.000128734 0.000127983 0.000129117 0.00012556 0.000122614 
0.000125815 0.000126945 0.000125639 0.000122716 0.000122069 
0.000126382 0.000116953 0.000114097 0.000123949 0.000129743 
0.000119061 0.000129054 0.000123794 0.000122911 0.000124521 
0.000124803 0.000122381 0.000125215 0.000122316 0.000122506 
0.000122365 0.000122822 0.000122226 0.000129795 0.000126283 
0.000119914 0.000120766 0.000124881 0.000117812 0.000126017 
0.000125694 0.000118965 0.000124598 0.000123799 0.00012383 
0.000126986 0.000125825 0.000126969 0.000124261 0.000124374 
0.000125743 0.0001255 0.000115501 0.000130473 0.000131448 
0.000126314 0.000129353 0.000120708 0.000120361 0.000128084 
0.000122952 0.000121313 0.000120585 0.000127954 0.000118847 
0.000119716 0.000125256 0.000120382 0.000127753 0.000125948 
0.000122234 0.000125725 0.000122723 0.000124954 0.000124137 
0.000126474 0.000122482 0.000125066 0.000122923 0.000121242 
0.000127909 0.000127718 0.000122358 0.000120151 0.000127232 
0.000138687 0.000125681 0.0001249 0.000123281 0.000124119 
0.000116239 0.000127331 0.000123339 0.000128971 0.000121863 
0.000115824 0.00012194 0.000122124 0.000129928 0.000116389 
0.000119035 0.00012529 0.000120886 0.000131214 0.000121524 
0.000135934 0.000126124 0.00012635 0.000115046 0.000121918 
0.000126721 0.000115031 0.000126869 0.000121894 0.000124741 
0.000123918 0.000121432 0.000125552 0.000126591 0.000121813 
0.00011953 0.000112975 0.000121118 0.000128138 0.000123612 
0.000124933 0.000121433 0.000121721 0.000126988 0.000118517 
0.00012417 0.000129102 0.000126144 0.000121947 0.000125181 
0.000121524 0.000117106 0.000128149 0.0001242 0.000125024 
0.000135197 0.000124602 0.000126066 0.000121941 0.000118921 
0.000122937 0.00012207 0.000117978 0.000120122 0.000113988 
0.000118171 0.00012439 0.000129232 0.000127438 0.000131376 
0.00012181 0.000119069 0.00011783 0.000125222 0.000132562 
0.000130597 0.000126772 0.000126528 0.000124137 0.000129435 
0.000128978 0.000130787 0.000127765 0.000121611 0.000128962 
0.000122533 0.000121226 0.000122921 0.00012214 0.000126455 
0.000122126 0.00012407 0.000125795 0.000125022 0.000120848 
0.000129206 0.000125535 0.000126202 0.000120157 0.000119022 
0.000119111 0.000129002 0.000126101 0.000125603 0.00012265 
0.000121911 0.000127108 0.000120902 0.0001288 0.000121376 
0.000117596 0.000132417 0.000126591 0.000127237 0.000126613 
0.000117508 0.000126899 0.000126775 0.000120993 0.000121648 
0.000123625 0.000121997 0.000130325 0.000125166 0.000121156 
0.000123913 0.000122343 0.000138231 0.000117516 0.000115551 
0.000122569 0.000122728 0.000128255 0.000119452 0.000126278 
0.000119568 0.00012949 0.000117663 0.000129649 0.000117771 
0.00012936 0.000117945 0.000129269 0.000118126 0.00012909 
0.000119974 0.000128862 0.000120472 0.000129121 0.00012057 
0.000129366 0.000120076 0.000130051 0.000118424 0.000127525 
0.000111585 0.000112405 0.000124504 0.000116257 0.000122829 
0.000125736 0.000125531 0.000125591 0.000125711 0.000125362 
0.000124599 0.000125945 0.00012651 0.00012626 0.000134622 
0.000107842 0.000124208 0.000126883 0.000127731 0.000126169 
0.0001258 0.000124957 0.000124101 0.000119743 0.000126163 
0.000124271 0.000124043 0.000123729 0.000123391 0.000123384 
0.000124104 0.00012818 0.000131993 0.000125888 0.00014032 
0.000136135 0.000123043 0.000125503 0.000125112 0.000124754 
0.000126445 0.000125771 0.000123403 0.00012567 0.000125643 
0.000124879 0.000124869 0.000117361 0.00012997 0.000123946 
0.000126885 0.000126504 0.000123497 0.000125991 0.000125366 
0.000124775 0.000126779 0.00012609 0.000124219 0.000123916 
0.000123538 0.000123331 0.000123627 0.000125247 0.000121951 
0.000112359 0.000123543 0.000123747 0.0001247 0.000122995 
0.000122236 0.000123152 0.000123466 0.000124102 0.000124646 
0.000123362 0.000124008 0.00012386 0.000123956 0.000123683 
0.00012242 0.000124353 0.000123804 0.000124546 0.000121554 
0.000123892 0.000123917 0.000123883 0.000123854 0.000123524 
0.00012036 0.000120742 0.000124226 0.000122608 0.000123574 
0.000123199 0.000121563 0.00012321 0.000121815 0.000117385 
0.000124616 0.00012271 0.00011928 0.000129166 0.00011855 
0.000130445 0.000118886 0.000129924 0.000118762 0.0001293 
0.000118773 0.000129258 0.000118962 0.000129005 0.000119212 
0.000128603 0.000119652 0.000128222 0.000119861 0.000128207 
0.000123796 0.000129448 0.000116274 0.00013558 0.000129915 
0.000125441 0.000124562 0.000123626 0.000124366 0.000125623 
0.000132619 0.000126941 0.000123996 0.000124547 0.000123317 
0.000124221 0.000125601 0.000122389 0.000124434 0.000125139 
0.000125429 0.000125283 0.000123151 0.00012701 0.00012204 
0.000125144 0.000122945 0.000124996 0.00012113 0.000126545 
0.000122887 0.000124322 0.000132012 0.000124319 0.00012347 
0.000134445 0.000124325 0.000124125 0.000123792 0.000123843 
0.000124101 0.000123303 0.00012471 0.000133391 0.000121847 
0.000122229 0.000124443 0.000123719 0.000135504 0.000124935 
0.000123561 0.00011291 0.000124001 0.000138175 0.000125779 
0.000121391 0.00012452 0.000131712 0.000123784 0.000122547 
0.000115288 0.000128505 0.000114543 0.000123369 0.000123394 
0.000119006 0.000127841 0.000126195 0.000123508 0.000123329 
0.000124261 0.000124292 0.000124362 0.000123993 0.000124335 
0.000123956 0.000123791 0.000123887 0.00012394 0.00012475 
0.000124606 0.000114944 0.000138613 0.000121798 0.000123714 
0.000124238 0.000124007 0.000116887 0.000124498 0.000124097 
0.000123232 0.000116819 0.00012444 0.00012399 0.000124137 
0.000126045 0.000122705 0.000122809 0.0001238 0.00011867 
0.000125593 0.000118744 0.000129223 0.000118965 0.000128979 
0.000119389 0.000128449 0.000119867 0.000127643 0.000120169 
0.000126684 0.000120167 0.000125875 0.000121616 0.000119545 
0.000125174 0.000124751 0.00012341 0.000125348 0.000123695 
0.000123061 0.000125463 0.000124108 0.000123555 0.000123685 
0.000124587 0.00012447 0.00013222 0.000129693 0.000134116 
0.000121692 0.000118427 0.000124432 0.000122198 0.000124979 
0.000124151 0.000115879 0.00012165 0.000123659 0.000125689 
0.000124396 0.000123045 0.000124458 0.000124351 0.000124055 
0.000123521 0.000124475 0.000124525 0.000124603 0.000122946 
0.00012469 0.000124696 0.000123978 0.000124232 0.000124534 
0.000123496 0.000123638 0.000123029 0.00012251 0.000123686 
0.000125188 0.000123648 0.000122508 0.000130718 0.000123199 
0.000124823 0.000123104 0.000123935 0.000123618 0.000124178 
0.00012333 0.000123725 0.000124494 0.000116495 0.000123979 
0.000124311 0.000123985 0.00012382 0.000131229 0.000123753 
0.000126696 0.000123778 0.000121462 0.000115695 0.000124046 
0.00012407 0.000125036 0.000122078 0.000124012 0.000128823 
0.000124511 0.000126658 0.000124459 0.000129139 0.000116363 
0.000119343 0.000118569 0.000129355 0.000118944 0.000128933 
0.000119491 0.000128517 0.00012015 0.000127728 0.000120799 
0.000126363 0.000120973 0.000124461 0.000119264 0.000121022 
0.000122449 0.00012446 0.000125497 0.000128877 0.000124669 
0.000124728 0.000123286 0.000124248 0.000123213 0.000118115 
0.000126476 0.000122724 0.000125404 0.000124213 0.00012391 
0.000124577 0.000124041 0.000123558 0.000126825 0.000124161 
0.000124463 0.000123938 0.000124358 0.000124336 0.000124284 
0.000123803 0.000127449 0.000124872 0.000125049 0.000117714 
0.000124203 0.000125742 0.000116219 0.000122011 0.000123725 
0.000123527 0.000124564 0.000123145 0.000122954 0.000120443 
0.000114794 0.00012558 0.000122954 0.000124879 0.000115135 
0.000122439 0.000123658 0.000130004 0.000126291 0.000117745 
0.000125039 0.000123251 0.000117593 0.000125249 0.000122394 
0.000122719 0.000124926 0.000119846 0.000135189 0.00012503 
0.000121954 0.000125376 0.000123475 0.000123551 0.000122928 
0.000123338 0.000121556 0.000119248 0.00012455 0.00013115 
0.000118558 0.000119512 0.000128497 0.000120312 0.000128066 
0.000120909 0.000128112 0.000121564 0.000125654 0.000120929 
0.000119622 0.000124479 0.000122353 0.000122905 0.000121753 
0.000122863 0.000126634 0.000127635 0.000125655 0.000123952 
0.000140601 0.000128302 0.000127149 0.00013074 0.000129964 
0.000125456 0.000116032 0.000124894 0.000129134 0.000129208 
0.000125463 0.000117685 0.000122618 0.000124347 0.000128391 
0.000126743 0.000124673 0.000124614 0.000124135 0.000121761 
0.000121642 0.000126565 0.000132892 0.00012574 0.000115797 
0.000132368 0.000124466 0.000116098 0.000133475 0.000123581 
0.000125096 0.000126552 0.000118534 0.00012496 0.000117152 
0.000125439 0.000123589 0.000124842 0.000124271 0.000124284 
0.000124974 0.00012117 0.000126273 0.000131786 0.000123216 
0.000125388 0.000122069 0.000122902 0.000120676 0.000127281 
0.000124499 0.000122488 0.000124008 0.000132552 0.00012975 
0.000125685 0.000121868 0.000123653 0.000117038 0.000120582 
0.000124483 0.000128506 0.000117075 0.000121683 0.000132128 
0.000124238 0.00012244 0.000120495 0.000119263 0.000124088 
0.000127404 0.000117838 0.000126877 0.000123072 0.000122277 
0.000127279 0.000122283 0.000124582 0.000124741 0.000118965 
0.000111883 0.000121175 0.000133676 0.000117733 0.00012891 
0.000119881 0.000123318 0.000126023 0.000133953 0.000114629 
0.000127906 0.000118912 0.000123746 0.000123496 0.000120144 
0.00011912 0.00012304 0.000120293 0.000124247 0.000122137 
0.000125166 0.000124807 0.000125608 0.000122841 0.000126823 
0.000128828 0.000126655 0.000122203 0.000120198 0.000129282 
0.000127862 0.00012449 0.000130938 0.000125706 0.000128569 
0.00012045 0.000122023 0.00012796 0.000127318 0.000126306 
0.000123818 0.000109298 0.00012539 0.000132818 0.000128925 
0.000129383 0.000127536 0.000123758 0.000126221 0.000126829 
0.000123157 0.00012785 0.000130136 0.000133513 0.00012237 
0.000117189 0.000135715 0.000125504 0.000117773 0.000122962 
0.000123151 0.000118049 0.000124901 0.000126111 0.000131762 
0.000120319 0.000111864 0.000123229 0.000126072 0.00012091 
0.000128195 0.000126121 0.000125354 0.000131312 0.00012077 
0.000128107 0.000117768 0.000119924 0.000121485 0.000131992 
0.000127473 0.000126724 0.000121619 0.000119453 0.000115104 
0.000112843 0.000128516 0.000115368 0.000125145 0.00011422 
0.000129367 0.000122441 0.000118796 0.000121794 0.000127892 
0.000123377 0.000114207 0.000121763 0.000122748 0.000131746 
0.000123695 0.000121814 0.000126307 0.000127343 0.000127643 
0.000125708 0.000130069 0.000128754 0.00011989 0.000128238 
0.000130502 0.000134345 0.00013022 0.000122025 0.000116309 
0.00011852 0.00012558 0.000112304 0.000127474 0.000126253 
0.000126426 0.000127614 
759.749 995.401 997.839 996.546 
997.034 996.562 996.511 996.369 1000.69 
876.537 859.439 856.695 854.72 861.021 
1094.77 1098.77 1098.73 1099.05 1099.44 
1099.47 1099.37 1099.13 1039.72 1093.95 
1098.2 1098.19 1098.32 1032.45 1071.85 
1098.72 1070.87 1000.35 1071.25 995.998 
996.944 996.85 996.296 998.471 1071.43 
997.18 1029.34 854.289 1032.82 863.346 
1031.8 1028.47 857.238 1071.74 853.867 
1099.19 1099.09 1099.39 1099.47 1099.19 
1099.33 1099.3 1098.52 1098.21 1098.17 
1098.63 1071.55 1026.73 1071.61 1071.47 
1071.37 1071.57 1068.35 1029.08 1097.92 
1097.76 1097.8 1097.84 1097.87 1097.86 
1098.29 1098.26 1097.46 1070.71 1097.82 
1097.81 1097.79 1097.96 1097.95 1098.36 
1098.23 1071.6 1071.61 1097.9 1098.01 
1030.17 1097.86 1097.28 1092.12 1098.57 
1090.81 1090.8 1090.43 1092.26 1090.73 
1093.37 1094.64 1098.93 1090.64 1098.47 
1080.62 1092.4 1092.36 1097.44 1097.57 
1092.6 1097.77 1094.07 1098.87 1097.99 
1090.63 1098.38 1063.84 1092.73 1096.23 
1098.86 1097.67 1098.96 1098.74 1098.99 
1097.98 1093.23 1101.83 1098.3 1098.02 
1090.8 1098.49 1091.59 1098.81 1090.13 
1099.08 1090.86 1098.45 1098.69 1097.75 
1097.55 1094.18 1097.26 1095.61 1098.39 
1097.32 1098.12 1093.28 1098.46 1097.61 
1098.6 1098.42 1098.52 1098.6 1097.71 
1098.92 1099.09 1098.94 1097.81 1098.08 
1098.96 1097.02 1096.4 1098.28 1099.17 
1097.26 1098.43 1098.34 1097.85 1098.44 
1098.45 1097.67 1098.54 1097.8 1097.68 
1097.84 1098.16 1097.89 1099.67 1098.61 
1096.96 1097.02 1098.83 1096.81 1099.38 
1098.94 1096.54 1097.64 1098.38 1098.24 
1098.83 1098.91 1099.12 1098.11 1098.45 
1098.64 1098.75 1095.66 1099.34 1100.25 
1098.78 1098.96 1097 1096.94 1099.54 
1098.35 1097.52 1096.99 1099.4 1097.25 
1097.61 1098.97 1096.94 1099.31 1098.99 
1097.6 1098.93 1097.67 1098.4 1098.46 
1098.67 1097.63 1098.65 1098.09 1097.53 
1099.44 1099.34 1097.63 1097.57 1099.53 
1101.14 1098.95 1097.86 1097.81 1098.52 
1096.5 1098.33 1098.32 1099.06 1097.58 
1097.05 1097.6 1097.59 1099.41 1097.05 
1097.52 1098.75 1096.92 1099.66 1097.36 
1100.41 1098.19 1099.08 1096.98 1097.43 
1099.03 1096.48 1098.92 1097.32 1097.94 
1098.04 1097.3 1098.93 1099.12 1097.5 
1096.8 1095.93 1097.16 1099.44 1099.07 
1098.89 1097.5 1097.39 1099.18 1096.45 
1097.77 1098.97 1099.04 1097.46 1098.81 
1097.25 1097.21 1099.04 1098.25 1098.66 
1099.95 1098.72 1098.71 1097.48 1097.52 
1098.17 1097.67 1097.01 1097.52 1096.46 
1097.48 1098.66 1099.36 1099.31 1099.49 
1097.4 1097.39 1096.67 1098.12 1099.85 
1099.12 1098.71 1099.13 1097.92 1098.96 
1099.31 1099.93 1099.34 1097.33 1099.57 
1097.55 1097.21 1097.74 1097.54 1099.27 
1098.39 1097.98 1099.01 1098.91 1097.21 
1098.87 1099.14 1098.93 1098.03 1096.92 
1097.28 1099.49 1099.21 1098.98 1098.52 
1097.47 1099.25 1097.14 1099.84 1097.33 
1097 1099.54 1098.48 1099.42 1099.25 
1097.67 1099.41 1099.46 1097.37 1097.34 
1097.84 1097.58 1098.97 1098.84 1097.19 
1098.83 1097.9 1100.63 1096.91 1095.81 
1097.52 1097.71 1099.53 1096.87 1099.42 
1096.86 1100.02 1096.41 1099.99 1096.45 
1099.83 1096.5 1099.81 1096.56 1099.77 
1097 1099.72 1097.13 1099.81 1097.04 
1099.81 1096.83 1099.49 1096.46 1100.71 
1010.64 815.054 1089.41 878.39 860.227 
852.941 855.094 857.931 857.686 854.473 
849.397 861.913 852.896 1028.95 1014.99 
1094.67 1098.07 1098.39 1098.27 1098.29 
1098.24 1098.1 1097.91 1098.03 1098.4 
1098.27 1098.27 1098.23 1098.16 1098.17 
1098.29 1098.78 1099.2 1098.48 1101.16 
1040.35 1029.3 857.219 1032.76 862.18 
1030.61 851.389 1029.97 857.918 856.843 
850.911 853.891 1096.11 1098.82 1028.04 
1098.41 1098.32 1097.76 1098.27 1098.17 
1098.07 1098.19 1098.65 1098.29 1098.26 
1098.19 1098.16 1098.2 1098.49 1030.86 
1096.3 1030.13 1029.7 1027.28 1027.72 
1097.58 1097.76 1097.82 1097.9 1097.84 
1098.2 1098.33 1098.31 1098.32 1098.27 
1098.06 1026.43 1097.86 1097.96 1097.9 
1098.31 1098.32 1098.31 1098.31 1098.24 
1097.67 1097.64 1028.74 1028.12 1030.06 
1097.66 1097.51 1097.78 1097.92 1096.51 
1092.62 1097.63 1096.68 1099.73 1096.54 
1099.3 1096.7 1099.32 1096.7 1099.83 
1096.71 1099.82 1096.77 1099.76 1096.84 
1099.66 1097 1099.54 1097.07 1099.45 
1097.9 1099.77 1094.95 1100.24 1090.03 
1092.37 1092.64 1097.57 1092.62 1094.4 
1099.16 1098.72 1092.01 1092.41 1091.67 
1098.61 1098.82 1097.77 1092.43 1097.78 
1098.82 1098.78 1097.94 1099.03 1097.7 
1098.76 1097.9 1091.95 1097.09 1099.16 
1098.32 1098.35 1093.47 1092.56 1097.55 
1100.08 1098.37 1098.34 1098.28 1098.3 
1098.39 1091.49 1097.65 1100.07 1097.62 
1097.66 1092.63 1097.6 1099.79 1098.74 
1098.03 1095.49 1097.62 1099.11 1097.82 
1097.17 1092.8 1099.82 1097.61 1097.37 
1095.79 1100.08 1096.47 1097.97 1098 
1097.17 1094.25 1097.91 1098.48 1098.02 
1098.39 1098.37 1098.37 1098.34 1098.4 
1098.31 1098.29 1098.27 1098.06 1098.59 
1097.85 1096.93 1101.24 1098.03 1098.29 
1098.38 1098.34 1096.32 1098.39 1098.33 
1097.93 1097.04 1098.42 1098.34 1098.36 
1098.21 1097.9 1097.86 1098.62 1096.71 
1099.2 1096.7 1099.82 1096.75 1099.75 
1096.87 1099.64 1097.02 1099.48 1097.17 
1099.24 1097.39 1099 1097.86 1097.79 
1098.83 1098.53 1098.05 1098.81 1098.29 
1098.19 1098.83 1098.51 1098.26 1098.29 
1098.52 1098.37 1099.62 1100 1099.98 
1097.86 1097.1 1098.6 1097.85 1098.74 
1098.63 1096.77 1097.84 1098.54 1098.41 
1098.63 1097.92 1098.41 1098.47 1098.32 
1098.23 1098.42 1098.47 1098.44 1098.39 
1098.08 1098.71 1098.16 1098.16 1098.48 
1098.15 1099.51 1097.97 1097.89 1098.04 
1098.78 1098.05 1097.93 1099.32 1098.77 
1098.56 1098.08 1098.23 1098.17 1098.46 
1097.98 1097.68 1098.4 1096.56 1098.34 
1098.38 1098.23 1098.31 1099.87 1098.26 
1098.92 1097.71 1097.53 1097.01 1098.37 
1098.35 1098.53 1097.61 1098.27 1099.17 
1098.44 1098.75 1098.42 1099.15 1096.93 
1096.76 1096.67 1099.92 1096.75 1099.77 
1096.87 1099.65 1097.04 1099.51 1097.26 
1099.32 1097.45 1098.98 1097.31 1098.1 
1098.54 1098.63 1098.72 1099.18 1098.51 
1098.46 1098.18 1098.37 1098.25 1097.44 
1099.06 1097.92 1098.75 1098.35 1098.44 
1098.43 1098.36 1098.27 1098.2 1098.58 
1098.48 1098.23 1098.49 1098.29 1098.29 
1098.39 1098.58 1098.44 1098.54 1097.32 
1098.12 1098.62 1096.94 1097.73 1098.25 
1098.25 1098.43 1098.39 1097.9 1097.05 
1096.36 1098.84 1098.14 1098.49 1097.07 
1098.1 1098.35 1099.32 1098.76 1097.17 
1098.59 1097.96 1097.35 1098.55 1098.39 
1098.44 1098.37 1097.81 1099.99 1098.73 
1097.49 1098.58 1098.51 1098.09 1098.03 
1097.99 1097.78 1097.2 1098.18 1099.21 
1096.59 1096.87 1099.56 1096.99 1099.5 
1097.12 1099.03 1097.27 1099.72 1097.23 
1097.15 1098.17 1098.23 1098 1098.1 
1097.88 1099.07 1098.8 1098.74 1098.09 
1101.32 1098.87 1099.35 1099.38 1098.98 
1098.68 1096.62 1097.92 1098.67 1099.23 
1098.58 1096.62 1098.03 1098.91 1098.85 
1098.68 1098.51 1098.46 1098.26 1097.8 
1098.23 1098.75 1099.84 1098.73 1095.64 
1099.36 1098.63 1095.33 1099.67 1098.04 
1098.63 1098.63 1097.43 1098.62 1096.23 
1098.63 1098.21 1098.56 1098.29 1098.36 
1098.5 1098.04 1098.23 1099.59 1098.15 
1098.57 1098.06 1097.9 1097.65 1098.87 
1098.45 1098.05 1098.21 1099.87 1099.23 
1098.69 1097.84 1099.7 1096.72 1097.14 
1098.12 1099.8 1097.1 1097.69 1099.3 
1098.27 1098.87 1097.81 1097.5 1098.36 
1099.09 1097.2 1099.03 1098.34 1097.85 