
TITLE     = "DG2D to Tecplot"
VARIABLES = "X"
"Y"
"RHO"
"U"
"V"
"VELOCITY_MAG"
"P"
"T"
"THETA1"
"THETA2"
ZONE T="ZONE 1"
STRANDID=0
ZONETYPE=FEQuadrilateral
DATAPACKING=BLOCK
VARLOCATION=([3-10]=CELLCENTERED)
DT=(SINGLE SINGLE SINGLE SINGLE SINGLE SINGLE SINGLE SINGLE SINGLE SINGLE)

Nodes=4707, Elements=9092
-3.88578e-16 3 3 0.6 
0.6 -3.88578e-16 0.025 0.05 0.075 
0.1 0.125 0.15 0.175 0.2 
0.225 0.25 0.275 0.3 0.325 
0.35 0.375 0.4 0.425 0.45 
0.475 0.5 0.525 0.55 0.575 
0.6 0.6 0.6 0.6 0.6 
0.6 0.6 0.625 0.65 0.675 
0.7 0.725 0.75 0.775 0.8 
0.825 0.85 0.875 0.9 0.925 
0.95 0.975 1 1.025 1.05 
1.075 1.1 1.125 1.15 1.175 
1.2 1.225 1.25 1.275 1.3 
1.325 1.35 1.375 1.4 1.425 
1.45 1.475 1.5 1.525 1.55 
1.575 1.6 1.625 1.65 1.675 
1.7 1.725 1.75 1.775 1.8 
1.825 1.85 1.875 1.9 1.925 
1.95 1.975 2 2.025 2.05 
2.075 2.1 2.125 2.15 2.175 
2.2 2.225 2.25 2.275 2.3 
2.325 2.35 2.375 2.4 2.425 
2.45 2.475 2.5 2.525 2.55 
2.575 2.6 2.625 2.65 2.675 
2.7 2.725 2.75 2.775 2.8 
2.825 2.85 2.875 2.9 2.925 
2.95 2.975 3 3 3 
3 3 3 3 3 
3 3 3 3 3 
3 3 3 3 3 
3 3 3 3 3 
3 3 3 3 3 
3 3 3 2.975 2.95 
2.925 2.9 2.875 2.85 2.825 
2.8 2.775 2.75 2.725 2.7 
2.675 2.65 2.625 2.6 2.575 
2.55 2.525 2.5 2.475 2.45 
2.425 2.4 2.375 2.35 2.325 
2.3 2.275 2.25 2.225 2.2 
2.175 2.15 2.125 2.1 2.075 
2.05 2.025 2 1.975 1.95 
1.925 1.9 1.875 1.85 1.825 
1.8 1.775 1.75 1.725 1.7 
1.675 1.65 1.625 1.6 1.575 
1.55 1.525 1.5 1.475 1.45 
1.425 1.4 1.375 1.35 1.325 
1.3 1.275 1.25 1.225 1.2 
1.175 1.15 1.125 1.1 1.075 
1.05 1.025 1 0.975 0.95 
0.925 0.9 0.875 0.85 0.825 
0.8 0.775 0.75 0.725 0.7 
0.675 0.65 0.625 0.6 0.575 
0.55 0.525 0.5 0.475 0.45 
0.425 0.4 0.375 0.35 0.325 
0.3 0.275 0.25 0.225 0.2 
0.175 0.15 0.125 0.1 0.075 
0.05 0.025 -3.88578e-16 -3.88578e-16 -3.88578e-16 
-3.88578e-16 -3.88578e-16 -3.88578e-16 -3.88578e-16 -3.88578e-16 
-3.88578e-16 -3.88578e-16 -3.88578e-16 -3.88578e-16 -3.88578e-16 
-3.88578e-16 -3.88578e-16 -3.88578e-16 -3.88578e-16 -3.88578e-16 
-3.88578e-16 -3.88578e-16 -3.88578e-16 -3.88578e-16 -3.88578e-16 
-3.88578e-16 -3.88578e-16 -3.88578e-16 -3.88578e-16 -3.88578e-16 
-3.88578e-16 -3.88578e-16 -3.88578e-16 -3.88578e-16 -3.88578e-16 
-3.88578e-16 -3.88578e-16 -3.88578e-16 -3.88578e-16 -3.88578e-16 
-3.88578e-16 0.0348722 0.0876359 0.138093 0.187756 
0.237556 0.28753 0.337534 0.387439 0.437136 
0.486824 0.536367 0.577932 0.579248 0.579527 
0.578917 0.61215 0.662439 0.712487 0.762497 
0.812499 0.8625 0.9125 0.9625 1.0125 
1.0625 1.1125 1.1625 1.2125 1.2625 
1.3125 1.3625 1.4125 1.4625 1.5125 
1.5625 1.6125 1.6625 1.7125 1.7625 
1.8125 1.8625 1.9125 1.9625 2.0125 
2.0625 2.1125 2.1625 2.2125 2.2625 
2.3125 2.3625 2.4125 2.4625 2.5125 
2.5625 2.61251 2.66251 2.71249 2.7624 
2.81221 2.86184 2.91125 2.95963 2.98169 
2.98134 2.97888 2.97869 2.97849 2.97834 
2.97831 2.97832 2.97833 2.97833 2.97832 
2.97834 2.9784 2.97845 2.97818 2.97713 
2.9758 2.93461 2.88768 2.83756 2.78752 
2.73753 2.68752 2.63751 2.5875 2.5375 
2.4875 2.4375 2.3875 2.3375 2.2875 
2.2375 2.1875 2.1375 2.0875 2.0375 
1.9875 1.9375 1.8875 1.8375 1.7875 
1.7375 1.6875 1.6375 1.5875 1.5375 
1.4875 1.4375 1.3875 1.3375 1.2875 
1.2375 1.1875 1.1375 1.0875 1.0375 
0.9875 0.9375 0.8875 0.8375 0.7875 
0.7375 0.6875 0.6375 0.5875 0.5375 
0.487501 0.437502 0.387504 0.337503 0.287485 
0.237418 0.187303 0.137355 0.0883049 0.0398426 
0.0181125 0.0227206 0.021815 0.0218113 0.0217988 
0.0216941 0.0216498 0.021646 0.0216498 0.0216512 
0.021652 0.0216556 0.0216686 0.0216927 0.0217162 
0.0217236 0.0216035 0.0207962 0.0214775 0.0214191 
0.0615491 0.113049 0.162935 0.212635 0.262535 
0.312537 0.362503 0.412304 0.461939 0.51175 
0.558723 0.577398 0.580114 0.578558 0.586318 
0.637363 0.687471 0.737494 0.787499 0.8375 
0.8875 0.9375 0.9875 1.0375 1.0875 
1.1375 1.1875 1.2375 1.2875 1.3375 
1.3875 1.4375 1.4875 1.5375 1.5875 
1.6375 1.6875 1.7375 1.7875 1.8375 
1.8875 1.9375 1.9875 2.0375 2.0875 
2.1375 2.1875 2.2375 2.2875 2.3375 
2.3875 2.4375 2.4875 2.5375 2.58751 
2.63751 2.6875 2.73745 2.78731 2.83704 
2.88656 2.93578 2.97859 2.97101 2.97923 
2.97865 2.97839 2.97832 2.97832 2.97833 
2.97833 2.97832 2.97832 2.97836 2.97844 
2.97838 2.9777 2.81252 2.95425 2.91245 
2.86268 2.76253 2.71253 2.66252 2.61251 
2.5625 2.5125 2.4625 2.4125 2.3625 
2.3125 2.2625 2.2125 2.1625 2.1125 
2.0625 2.0125 1.9625 1.9125 1.8625 
1.8125 1.7625 1.7125 1.6625 1.6125 
1.5625 1.5125 1.4625 1.4125 1.3625 
1.3125 1.2625 1.2125 1.1625 1.1125 
1.0625 1.0125 0.9625 0.9125 0.8625 
0.8125 0.7625 0.7125 0.6625 0.6125 
0.5625 0.5125 0.462501 0.412503 0.362505 
0.312498 0.262457 0.212355 0.162271 0.112597 
0.0638571 0.0218255 0.0291648 0.0217565 0.021767 
0.0217438 0.0216643 0.0216451 0.0216482 0.0216506 
0.0216514 0.0216533 0.0216594 0.0216773 0.021704 
0.0217204 0.0217012 0.0213428 0.0206705 0.0226305 
0.560509 0.151025 0.200299 0.250052 0.300064 
0.350056 0.399799 0.449049 0.498356 0.551969 
0.0758825 0.0472932 0.556831 2.95841 0.557614 
0.558251 0.649807 0.624629 0.699959 0.749994 
0.799999 0.85 0.9 0.95 1 
1.05 1.1 1.15 1.2 1.25 
1.3 1.35 1.4 1.45 1.5 
1.55 1.6 1.65 1.7 1.75 
1.8 1.85 1.9 1.95 2 
2.05 2.1 2.15 2.2 2.25 
2.3 2.35 2.4 2.45 2.5 
2.55001 2.60002 2.65002 2.7 2.74988 
2.79952 2.8489 2.89781 2.94677 2.95662 
2.95733 2.95685 2.95752 2.95841 2.95708 
2.90092 2.95664 2.95666 2.95667 2.95664 
2.95664 2.95673 2.95685 2.95663 2.95466 
2.70006 2.82506 2.77507 2.85016 2.92939 
2.80005 0.0432894 2.65003 2.60001 2.55 
2.5 2.45 2.4 2.35 2.3 
2.25 2.2 2.15 2.1 2.05 
2 1.95 1.9 1.85 1.8 
1.75 1.7 1.65 1.6 1.55 
1.5 1.45 1.4 1.35 1.3 
1.25 1.2 1.15 1.1 1.05 
1 0.95 0.9 0.85 0.8 
0.75 0.7 0.65 0.6 0.55 
0.500001 0.450003 0.400007 0.350011 0.299997 
0.24991 0.199681 0.149421 0.0997077 0.0526726 
0.0436048 0.0432989 0.0437331 0.0435498 0.044094 
0.0436745 0.0432882 0.043667 0.0432948 0.0433017 
0.0433023 0.0433031 0.0433079 0.0433241 0.0433662 
0.0434218 0.0434387 0.0433678 0.0424307 0.0414849 
0.126498 0.101581 0.0432842 0.599303 2.95664 
2.72507 0.0433401 0.556526 0.175601 0.225132 
0.275053 0.325073 0.374981 0.42448 0.473576 
0.523753 0.560453 2.95715 0.674917 0.724985 
0.774997 0.824999 0.875 0.925 0.975 
1.025 1.075 1.125 1.175 1.225 
1.275 1.325 1.375 1.425 1.475 
1.525 1.575 1.625 1.675 1.725 
1.775 1.825 1.875 1.925 1.975 
2.025 2.075 2.125 2.175 2.225 
2.275 2.325 2.375 2.425 2.475 
2.52501 2.57501 2.62502 2.67502 2.72497 
2.77475 2.82429 2.8734 2.92222 2.95671 
2.95662 2.95666 2.95667 2.95666 2.95663 
2.95667 2.95679 2.95683 2.95609 2.87573 
2.75008 2.62502 2.67504 2.57501 2.525 
2.475 2.425 2.375 2.325 2.275 
2.225 2.175 2.125 2.075 2.025 
1.975 1.925 1.875 1.825 1.775 
1.725 1.675 1.625 1.575 1.525 
1.475 1.425 1.375 1.325 1.275 
1.225 1.175 1.125 1.075 1.025 
0.975 0.925 0.875 0.825 0.775 
0.725 0.675 0.625 0.575 0.525001 
0.475002 0.425005 0.375011 0.325009 0.274964 
0.224805 0.174498 0.124426 0.0766502 0.574327 
0.0446423 0.0434238 0.0433042 0.0433031 0.0433012 
0.0433134 0.0433457 0.0433985 0.0434353 0.0434365 
0.0431275 0.0409261 0.0443315 0.237563 0.66233 
2.68759 0.212671 1.1625 0.0644691 2.86247 
0.362576 0.064221 0.436505 2.9368 0.484602 
0.0656941 0.533965 2.90868 0.5389 0.0688243 
2.93385 0.71247 2.93494 2.935 0.687426 
0.187959 0.762496 0.812499 0.8625 0.9125 
0.9625 1.0125 1.0625 1.1125 1.1375 
0.287591 1.2125 1.2625 1.3125 1.3625 
1.4125 1.4625 1.5125 1.5625 1.6125 
1.6625 1.7125 1.7625 1.8125 1.8625 
1.9125 1.9625 2.0125 2.0625 2.1125 
2.1625 2.2125 2.2625 2.3125 2.3625 
2.4125 2.4625 2.51251 2.56252 2.61253 
2.66254 2.71251 2.76226 2.81158 2.86043 
2.88463 0.787498 0.537848 0.534303 2.94062 
2.93541 0.460537 2.3625 2.5125 2.88974 
2.93496 2.93498 2.935 2.93497 2.93491 
2.93499 2.93518 2.93516 2.93491 0.0655073 
2.91328 2.63754 0.0651366 2.56251 0.059237 
2.58751 2.66257 2.5375 2.73766 2.4625 
2.4125 2.3875 2.76267 2.3125 2.2625 
2.2125 2.1625 2.1125 2.0625 2.0125 
1.9625 1.9125 1.8625 1.8125 1.7625 
1.7125 1.6625 1.6125 1.5625 1.5125 
1.4625 1.4125 1.3625 1.3125 1.2625 
1.2125 1.1625 1.1125 1.0625 1.0125 
0.9625 0.9125 0.8625 0.8125 0.7625 
0.7125 0.6625 0.6125 0.5625 0.512501 
0.462504 0.41251 0.362522 0.312524 0.262453 
0.212173 0.16145 0.11065 0.0842529 0.412086 
0.5866 0.0651321 0.544063 0.0649272 0.0652202 
0.0657427 0.0649519 0.064956 0.0649552 0.0649656 
0.0650028 0.065084 0.0649546 0.0651657 0.0651518 
0.0645232 0.0632553 0.262549 0.551369 0.337627 
0.163505 0.533001 0.139336 2.9349 0.0651751 
2.93587 0.0649581 2.71263 0.0649553 0.0649251 
2.9363 0.0649558 0.637146 0.068158 0.387405 
2.93267 2.93403 1.1875 2.83758 0.561657 
0.312618 0.9875 0.9375 0.737486 0.837499 
0.8875 1.0375 1.0875 1.2375 1.2875 
1.3375 1.3875 1.4375 1.4875 1.5375 
1.5875 1.6375 1.6875 1.7375 1.7875 
1.8375 1.8875 1.9375 1.9875 2.0375 
2.0875 2.1375 2.1875 2.2375 2.2875 
2.3375 2.3875 2.4375 2.4875 2.53751 
2.58753 2.63754 2.68754 2.73742 2.78695 
2.83612 0.508734 2.3375 2.93512 2.93496 
2.93493 2.93499 2.93493 2.93508 2.93526 
0.0649381 2.93475 2.78765 0.528268 0.0654774 
2.61252 2.4875 2.4375 2.2875 2.2375 
2.1875 2.1375 2.0875 2.0375 1.9875 
1.9375 1.8875 1.8375 1.7875 1.7375 
1.6875 1.6375 1.5875 1.5375 1.4875 
1.4375 1.3875 1.3375 1.2875 1.2375 
1.1875 1.1375 1.0875 1.0375 0.9875 
0.9375 0.8875 0.8375 0.7875 0.7375 
0.6875 0.6375 0.5875 0.537501 0.487502 
0.437507 0.387517 0.337528 0.287504 0.237341 
0.186884 0.136097 0.0651667 0.61186 0.0649468 
0.0649763 0.0650422 0.0650413 0.0650036 0.115749 
0.0614962 0.0918101 1.925 1.325 0.0867126 
0.849999 2.81264 2.55003 0.573536 2.425 
0.300166 1.975 0.086943 0.0866299 0.122293 
1.25 0.0867717 1.3 2.45 2.91339 
1 0.200137 2.91555 0.151203 1.1 
0.0865498 0.749992 0.95 0.674858 1.075 
1.05 1.2 1.95 2.91911 1.275 
1.45 1.5 1.55 1.375 0.9 
1.425 1.025 1.475 1.4 1.525 
1.95 2.50001 1.625 0.0867098 1.675 
1.725 1.775 1.825 1.875 1.925 
1.6 2 2.05 2.1 2.15 
2.2 2.25 2.3 2.35 2.4 
2.45 2.475 1.65 2.52502 2.60005 
2.65008 2.70007 2.74987 2.79903 2.87166 
0.799998 0.471537 0.824999 2.55001 0.0871364 
0.0878911 2.9133 2.9133 2.91333 2.91316 
2.91265 2.91319 2.91333 2.91327 2.91323 
2.91722 2.91419 1.175 2.85011 0.0866096 
0.375114 2.57501 2.65007 2.175 0.0868309 
2.475 0.724975 2.75033 2.325 2.275 
0.624405 2.225 2.2 2.60002 2.125 
2.9137 2.05 2 0.516944 1.225 
2.84762 1.875 1.825 2.5 1.775 
1.725 1.675 1.625 1.575 1.525 
1.475 1.425 1.375 1.325 1.275 
1.225 1.175 1.125 1.075 1.025 
0.975001 0.925 0.874999 0.824999 0.775 
0.725 0.675 0.625 0.575 0.525001 
0.475004 0.425013 0.375033 0.325059 0.275035 
0.224793 0.173983 0.0869189 0.448508 2.35 
2.67513 0.975 2.91343 0.250046 0.925 
2.075 0.087599 0.0866108 0.0866532 0.0866102 
0.599054 0.0855957 2.9136 0.0867908 0.275094 
0.175484 2.62504 0.0866087 2.91314 0.0866152 
0.350214 0.0868383 0.0868633 0.08661 0.0879212 
0.424302 2.91315 2.91501 0.147971 2.375 
0.0866103 2.3 0.64972 0.0832795 0.536211 
2.91318 2.91329 2.91333 2.91324 2.87227 
1.8 2.89551 0.874999 2.82542 1.15 
0.547746 2.89163 1.9 0.511293 1.8 
0.774997 1.125 0.699931 1.35 1.575 
1.7 1.75 1.85 1.975 2.025 
2.075 2.125 2.175 2.225 2.275 
2.325 2.375 2.425 2.57504 2.62507 
2.67508 2.72502 2.77451 0.510936 2.90674 
0.511841 0.0865536 0.325202 2.82335 0.225032 
2.91313 0.0850248 2.77535 0.0965728 0.494798 
2.525 2.4 2.72527 2.25 2.1 
2.15 2.025 0.524111 1.85 1.9 
1.75 1.7 1.65 1.6 1.55 
1.5 1.45 1.4 1.35 1.3 
1.25 1.2 1.15 1.1 1.05 
1 0.95 0.9 0.849999 0.8 
0.75 0.7 0.65 0.6 0.550001 
0.500003 0.450009 0.400024 0.350051 0.300064 
0.249955 0.199484 0.399827 2.9136 0.086603 
0.086576 0.0868898 0.127379 0.0870481 2.70019 
0.0865755 1.3625 2.80041 1.5125 1.9375 
2.4375 0.560115 2.53751 0.498021 1.7875 
2.83478 2.0875 2.58758 1.3875 2.4375 
2.0375 0.108462 1.0125 0.987501 1.4375 
0.521849 2.2375 1.0625 1.7375 1.2875 
0.712449 1.5625 0.51064 0.106448 1.0375 
1.4875 1.4125 1.5375 0.762496 1.4625 
2.89507 2.0125 1.7125 1.8625 2.51252 
1.9875 1.9125 2.89163 1.6125 0.387736 
1.7625 2.63764 1.5875 2.0875 2.1375 
2.1875 2.2375 2.2875 2.3375 2.3875 
1.1375 1.8375 0.108626 2.4125 2.68766 
2.0375 1.5375 0.837498 2.3875 0.11035 
0.68739 2.89157 1.6875 1.8875 2.89144 
1.4375 2.89147 2.8913 2.89158 2.89151 
1.1875 2.89433 0.108184 1.7625 2.56256 
0.262615 2.56251 0.0865935 0.108305 2.6126 
0.108269 0.108268 0.312769 2.83911 0.737484 
0.186949 1.1125 0.108536 2.1375 2.1125 
1.2625 2.1625 2.89226 1.8875 1.9125 
1.8375 2.7867 1.7125 1.6625 1.0875 
1.5875 1.5625 0.502883 1.4875 1.4625 
2.89125 1.4125 0.108748 1.3125 1.0375 
1.2375 1.1875 1.1625 1.6125 1.1125 
1.2625 1.0625 1.0125 0.212309 0.9125 
0.862499 0.812499 0.7625 0.712501 0.6625 
0.612499 0.5625 0.512504 0.46251 0.412531 
0.362576 0.312637 0.26263 0.462086 1.8625 
2.3375 2.66264 0.108355 1.3375 0.9375 
2.4125 0.237507 0.812498 2.0625 0.10925 
2.81078 0.48287 2.2625 0.108278 2.89138 
0.106324 0.362853 0.108447 0.9125 0.108729 
0.108268 0.110045 0.43647 0.108797 2.3625 
1.3375 2.89333 0.108268 0.108576 2.4875 
1.9875 2.89144 2.86694 2.58752 0.11014 
0.937501 2.4625 2.73755 0.108149 2.89177 
0.237532 2.89165 0.212395 0.287689 2.76228 
1.6625 0.106907 2.81345 1.1625 0.534078 
2.89234 0.162548 0.486038 2.89225 0.862499 
1.9625 1.3875 1.1375 2.85866 1.9375 
1.0875 2.3125 2.2125 1.8125 2.89166 
2.0625 2.1125 2.1625 2.2625 2.3625 
0.412292 2.53753 2.66265 2.71263 0.787498 
0.161393 1.3125 2.61253 2.78824 2.68774 
1.2125 2.2125 0.962501 0.108202 2.0125 
2.88271 2.73804 0.637034 2.89167 1.8125 
1.2375 0.489118 2.5125 0.586015 1.7375 
1.6875 1.6375 1.5125 0.33782 1.3625 
1.2875 1.2125 0.887499 0.837499 0.7875 
0.737501 0.687501 0.6375 0.5875 0.537501 
0.487506 0.437516 0.387544 0.3376 0.287651 
0.108269 0.108265 2.4625 2.3125 0.987501 
0.9625 0.108624 1.6375 0.108275 0.13804 
0.187322 0.11006 2.8913 0.611628 0.133095 
2.2875 2.89144 2.89134 1.7875 2.1875 
0.662287 0.108156 0.887499 2.48751 0.485931 
2.25 2.35 0.546702 0.50783 0.466324 
2.65026 2.375 1.425 1.875 1.4 
2.175 1.275 0.470586 0.774997 1.7 
0.699927 1.625 2.86961 2.63758 1.3 
2.86995 2.86938 2.82658 1.9625 0.575 
2.425 2.425 1.85 1.125 1.475 
1.55 0.275343 1.8 2.52501 0.133143 
0.325359 1.975 2.70029 1.925 1.6 
2.1 1.775 2.15 2.075 2.125 
2.225 2.325 2.2 2.67531 0.400662 
1.675 0.129996 1.65 2.075 2.025 
0.925001 2.86752 2.86937 0.1297 0.700002 
1.9 2.71286 1.825 1.575 2.76319 
2.86979 0.130297 2.86978 0.275256 2.57512 
2.87301 2.3 0.495634 0.108256 0.129936 
0.108239 2.75016 2.86981 1.1 0.12993 
1.725 1.275 2.55007 2.15 0.975002 
2.79885 2.52503 2.84571 1.45 1.5 
2 1.7 1.2 2.4 1.45 
1.525 2.8692 0.130525 1.025 1.075 
0.775 1.1 1.05 1 0.200012 
1.375 1.65 1.225 0.874998 0.824998 
0.799999 0.725002 0.65 0.599999 2.025 
0.525004 0.475011 0.425037 0.375091 0.32521 
0.130738 1.325 0.300272 0.250171 0.824997 
2.05 2.05 0.375644 0.129953 0.129931 
0.130016 0.925 0.446638 0.130804 1.525 
0.950002 1.35 2.82209 2.4 0.130105 
2.25 2.86995 0.129929 1.15 0.130502 
1.3 1.95 0.129908 1.375 2.85169 
2.57502 1.9 1.075 2.87075 2.1 
0.224991 0.300267 2.8702 2.77485 1.675 
1.75 2.86924 1.75 2.125 2.62523 
2.55002 2.87674 2.86988 0.350493 2.75109 
0.468002 2.65013 0.173763 1.85 1.4 
2.87124 2.87386 0.799998 2.50001 1.175 
1.925 2.475 2.86998 1.025 1.425 
1.875 1.725 2.77629 0.13168 2.62506 
1.625 2.375 0.42492 2.325 0.250371 
2.72526 2 0.483341 2.275 1.05 
1.975 0.129933 2.60003 2.45 2.67525 
0.130076 0.126547 0.129934 0.129886 2.86951 
1.5 1.125 1.6 2.175 0.9 
1.25 0.724973 0.129806 1.475 1.325 
2.5 2.35 1.175 1.25 0.174851 
0.520298 0.572886 0.849997 1.35 0.750001 
0.675001 0.624999 0.500007 0.550001 0.450018 
0.40006 0.350151 2.86967 1 2.60015 
0.148816 0.849997 0.950001 0.129694 2.8686 
0.19962 0.132473 1.95 0.624234 2.86952 
2.225 2.275 1.55 1.775 0.674823 
2.45 0.899999 2.80145 0.225274 0.749993 
0.456256 2.72573 1.825 1.2 0.130597 
0.612498 1.98749 1.8625 1.9875 1.4875 
0.152125 0.151366 1.1625 2.81167 1.15 
1.7375 0.131125 1.86251 1.6625 1.225 
2.475 0.154536 0.337771 2.2625 1.7125 
0.762501 2.2 1.0625 0.443048 0.412563 
1.6375 1.2375 1.7875 2.2375 2.1625 
1.6125 2.0875 2.85062 0.151595 1.0125 
2.3375 1.3125 2.4125 0.415084 2.2125 
0.862495 2.68807 1.6375 2.3 1.3125 
2.73794 0.152269 1.1125 0.388888 2.51251 
2.84739 0.152969 0.637499 2.70043 1.83751 
0.812496 1.5875 0.46252 0.129928 2.3125 
0.887498 2.84804 0.687503 2.56253 1.8 
1.6875 2.84829 1.5125 1.4875 1.4375 
2.58771 1.6625 0.493822 0.152998 2.56265 
2.63794 2.84791 1.575 0.912501 1.2625 
0.7875 2.3875 0.562501 0.598679 1.4375 
1.5125 0.532979 2.8469 0.481283 0.151614 
1.9375 2.03749 2.01249 2.66305 1.0375 
1.38751 2.33751 1.3375 0.812497 0.712504 
0.662501 0.512508 2.01249 0.487511 2.61282 
0.437541 1.2875 0.456018 1.81251 2.85387 
0.975001 2.0625 0.1516 0.262917 2.1875 
0.151644 0.12997 0.468783 0.587499 0.649587 
0.787499 1.3625 0.362686 2.83287 0.337879 
0.151933 2.84822 1.4125 0.151598 1.1875 
1.0875 2.36251 1.41249 1.1375 1.4625 
2.53757 0.151606 1.5625 0.152631 1.2875 
1.8875 1.9625 2.71303 2.2875 1.38749 
2.83997 0.151728 1.36249 1.08751 2.85143 
2.0875 0.237942 2.84864 0.312706 2.84799 
0.874998 1.7625 2.84679 1.9125 1.7375 
2.53752 2.8482 0.363272 0.636845 1.5875 
0.157206 0.151945 0.186854 0.15154 2.7389 
0.662197 2.51253 1.9125 0.312914 0.152743 
0.737504 0.962504 2.76458 2.3875 0.129918 
2.1375 1.0375 2.3625 1.3375 2.4875 
1.0625 0.151612 1.1875 2.58753 0.837495 
2.6627 0.150457 2.3125 0.213374 1.5375 
2.84743 1.4625 1.2625 0.50642 2.1375 
0.71245 2.1625 0.442682 2.84787 2.4125 
0.38762 0.559471 0.837495 0.987504 0.537504 
0.151877 1.1625 1.9625 1.83751 2.84728 
1.0125 0.9375 1.8875 2.0375 0.611351 
0.151111 0.263217 0.212786 0.158813 2.84831 
2.0625 2.84908 0.937503 2.2375 1.2125 
1.6125 2.2625 1.6875 1.5375 1.7625 
0.68738 2.81518 1.1125 0.287743 2.4375 
0.912499 2.78791 0.762501 2.76302 2.1125 
0.151601 2.4625 2.63758 0.187558 2.4375 
1.99999 2.48751 0.849991 1.37501 2.7133 
1.87501 0.429258 0.173306 1.225 1.65 
0.599997 2.22499 0.173262 1.05 0.175634 
1.3 0.168876 0.238341 2.82631 2.61254 
0.45004 2.1125 2.4 1.55 2.82454 
0.299838 0.975007 0.52501 0.45436 1.45 
0.174461 2.55003 2.82699 2.37501 2.7011 
0.173361 1.5625 2.84731 0.624997 2.6879 
1.2125 0.887498 1.85001 1.32499 0.250965 
1.99999 0.700009 1.32501 1.62499 2.325 
0.874994 0.862496 0.275156 0.173222 0.173124 
0.173276 1.5 1.75 0.441589 2.4625 
0.73749 0.176667 2.65088 0.750006 2.57529 
1.25 2.82665 0.799999 1.15 0.725008 
2.2875 1.80001 1.7125 0.585634 1.50001 
0.467043 1.42501 0.545759 2.37501 1.95 
2.676 1.1 1.45001 0.375217 2.1875 
1.725 2.35001 2.5 1.35001 0.288057 
0.65 1.1375 2.62562 1.82501 1.275 
2.27499 2.8281 0.400118 0.675006 0.962501 
0.9 0.987501 2.19999 2.40001 1.00001 
2.60045 0.550005 0.575 1.9375 2.82593 
1.65 2.82984 0.173894 1.525 2.82646 
1.40001 0.173279 1.175 1.075 1.42499 
1.125 1.475 2.55015 0.173292 0.17507 
1.3 1.875 0.151609 1.97499 0.151606 
2.3 1.39999 0.173525 1.37499 1.59999 
0.175404 2.79006 0.402305 2.84765 1.77501 
2.82346 1.925 2.82654 2.175 1.7 
1.575 2.1 1.725 0.276034 0.724988 
0.824993 2.72631 0.500014 2.82514 2.52506 
0.950007 1.9 0.151804 0.350317 0.202602 
2.75239 0.425077 2.75048 0.572287 2.15 
0.479619 0.325512 2.57504 0.824992 1.07501 
2.8254 0.17331 2.67526 2.2125 2.52501 
1.34999 2.425 2.04999 1.97499 0.202052 
2.02499 1.275 0.226805 0.17333 1.675 
0.519083 2.15 1.17501 0.428541 2.82664 
2.82606 1.7 2.24999 1.47501 1.90001 
2.25 2.35001 1.025 2.475 1.2375 
0.95 1.05001 0.475022 1.81251 2.02499 
2.82516 0.300725 0.151141 1.025 1.2 
2.07499 0.174709 0.624051 0.17283 2.80328 
0.925005 0.226301 1.625 0.775002 2.07499 
0.799998 0.350339 2.82487 1.6 1.78751 
1.675 1.52501 1.57499 1.85001 1.75 
2.72595 0.699932 2.425 0.924999 2.82989 
0.324924 0.775007 2.1 0.376021 1.55 
1.10001 2.65008 1.2 2.225 2.32501 
0.649526 0.75001 0.837486 0.439929 1.6875 
2.82488 1.56249 0.45257 2.73914 2.125 
2.5125 1.81252 2.70063 0.196986 0.251359 
0.190916 2.60004 1.36248 2.77608 1.4625 
2.175 2.80534 2.36252 1.41252 0.177815 
0.19502 1.76251 0.598298 1.28751 2.01248 
2.82572 1.13751 1.5125 1.2375 2.475 
2.80498 0.437573 2.45 0.899997 0.492152 
0.286446 1.33748 1.86252 0.862487 1.31251 
1.1875 2.28749 1.63749 2.80167 1.6625 
1.78751 2.33751 0.194958 2.80505 1.0875 
0.587498 2.275 2.26248 2.80273 2.125 
1.0375 2.71472 2.2 2.45 2.80463 
2.588 2.62504 2.3125 2.53752 2.80385 
1.43751 2.23748 1.06251 0.637499 1.7375 
0.975001 1.33752 0.687515 0.427148 2.80815 
0.612496 1.83752 1.2625 0.336887 0.387716 
0.662507 0.887495 0.174232 2.21248 0.262201 
2.04999 0.558637 2.38752 0.415469 0.987511 
0.537514 0.562504 0.195119 0.3381 0.67481 
1.91251 0.19608 0.362847 2.3 1.5375 
2.80466 0.194978 1.1625 2.50002 0.173305 
1.36252 1.0625 1.43749 1.46251 1.2125 
1.1125 1.4875 2.56279 0.194984 1.31249 
1.98749 0.311491 1.41248 0.195426 1.38748 
2.63874 1.61249 1.01251 2.79679 1.48751 
2.38751 2.80492 0.194943 1.96249 2.18749 
1.7125 0.193925 2.13751 2.1125 0.812493 
2.53762 0.197893 0.197935 2.80196 0.512521 
0.585127 1.8875 1.58749 1.7125 1.0375 
2.71329 0.737536 2.77908 0.264205 2.73914 
0.812493 0.737516 2.68949 2.33752 2.1125 
2.1625 0.962499 0.194985 1.12501 2.56254 
2.80323 0.195039 1.5625 0.849991 0.636775 
1.1875 1.63751 1.94999 1.98749 1.2875 
0.874994 0.21555 0.173321 1.225 0.388661 
2.78325 0.412637 0.531873 0.414218 2.03748 
1.15001 0.611116 2.80426 1.38752 1.51251 
0.712517 2.16251 0.787501 2.23749 2.66415 
1.08751 2.36251 1.25 2.48749 2.26249 
0.462542 1.66251 1.88751 2.01249 2.80294 
0.28874 0.912506 0.172186 2.08749 1 
0.962514 2.61337 0.240164 1.925 0.762509 
2.06249 2.66248 0.465022 1.5875 1.77501 
0.712511 1.82501 1.7375 0.173301 2.4125 
0.78751 0.937499 2.1375 2.4125 1.9375 
2.0875 0.199685 0.199061 1.86251 0.19514 
2.06248 1.16251 0.36256 0.217948 0.487527 
2.80269 2.78333 1.90002 0.937513 0.216751 
0.239705 2.58755 0.837484 2.76147 1.475 
2.37502 1.2125 0.987499 1.275 0.348573 
0.29732 0.425275 2.80375 0.219995 0.662214 
1.94999 2.32502 1.40003 0.313383 2.4875 
1.87503 0.912497 2.62654 1.30001 1.17501 
2.78302 1.47503 1.96249 1.525 0.400222 
1.37496 1.80003 1.92501 1.6125 0.401333 
2.7835 2.3 2.35002 0.504796 2.27498 
1.6875 0.412575 2.18751 2.46249 1.77502 
2.72991 1.7 1.025 2.68773 2.2125 
1.75001 2.7763 2.52498 1.53751 2.78198 
1.42503 2.24997 0.17246 1.07501 1.225 
1.32502 0.874986 2.02496 0.599995 1.64999 
1.85003 2.2875 1.25 0.425126 2.37504 
0.216924 2.22497 0.271681 2.03749 0.624996 
2.63748 1.12501 0.216656 0.21868 1.675 
1.57498 0.76253 1.80001 1.54999 2.78279 
0.216698 1.15001 2.51253 0.195034 1.35003 
1.05 1.44999 1.45002 1.2 1.10001 
1.50001 2.57551 1.62498 0.216678 1.32497 
2.60093 1.99997 0.824985 0.322931 1.42498 
0.217507 1.39996 0.571706 0.477434 1.82503 
2.78337 0.216647 0.849979 1.97498 2.19998 
1.34996 1.725 2.4375 0.325975 0.374597 
2.67463 2.6999 2.72559 2.5502 1.83752 
0.225485 2.6498 1.7 1.05001 2.78254 
0.544911 2.76614 0.195097 0.252537 1.875 
0.725031 2.70408 2.40001 2.31251 0.193956 
1.2 2.17499 2.12501 2.04998 0.437744 
0.21681 2.78096 0.450014 2.55002 0.220982 
2.77729 0.649626 2.43749 1.37504 2.46249 
0.824976 0.575005 2.6523 2.125 1.97498 
0.650008 1.29999 0.887493 1.00001 0.39967 
0.217057 1.17501 0.624055 0.598123 0.375335 
1.50003 2.15002 2.75636 2.61253 2.225 
2.49997 2.7805 1.55001 1.2625 0.245236 
2.04996 1.99999 2.24999 0.450074 1.65002 
2.35004 2.78035 0.194073 0.276959 0.900002 
0.675023 2.09999 1.0125 1.91249 0.687434 
0.750023 0.750081 1.59998 0.35059 1.575 
1.76251 0.7251 1.725 0.799999 0.19502 
2.40002 0.800003 1.11251 0.949996 1.13751 
0.52503 2.07499 1.07502 0.975022 1.62501 
0.21704 1.89999 0.974993 1.67501 2.07498 
0.462379 0.558286 0.227669 1.48751 1.78752 
2.02498 1.85002 2.57505 0.238752 1.2625 
0.862486 0.700033 1.23749 1.66249 0.422537 
1.22499 2.1 0.410347 2.78183 1.36256 
1.43748 2.33754 2.21245 0.92502 0.550018 
1.86255 0.924997 0.849972 1.28751 1.31253 
2.15 1.16252 0.238468 1.94999 1.0625 
1.52503 2.75983 2.30001 1.9375 1.6 
2.76206 1.46255 2.31251 0.517683 0.216968 
2.28748 2.17502 1.38756 2.47497 1.78753 
1.93749 2.44998 1.76252 0.195031 2.7802 
0.71256 0.475051 1.41255 2.68619 2.58826 
2.26245 2.67813 0.192319 0.490119 0.537543 
2.74628 1.01251 0.301445 2.76152 2.275 
0.412709 1.2125 2.32503 2.23744 0.282521 
0.39782 1.33743 0.612498 1.91252 2.20001 
1.38743 1.7125 0.775041 1.53749 0.242031 
1.6875 2.76069 0.238428 0.238406 1.63748 
1.33755 1.0375 1.4625 1.43755 1.1875 
1.08752 1.51251 0.238389 1.88753 1.61247 
2.01243 0.239924 0.216824 1.41245 1.83755 
2.44997 1.58747 2.42499 1.11252 2.76197 
0.238392 0.386939 1.36242 1.7375 2.425 
0.775011 0.31403 2.56279 0.500039 2.62498 
1.025 0.585095 0.950026 2.76093 2.53743 
0.531038 2.75085 0.241479 1.81252 0.360142 
2.13751 2.18747 2.71998 1.21248 1.06251 
0.243162 0.23861 2.75883 0.674941 0.289681 
0.214719 0.217695 2.47497 1.96248 0.637506 
1.31246 1.53754 0.387829 2.7113 0.899991 
2.61406 2.38753 2.11252 2.21252 2.36254 
1.18751 0.238919 0.384928 1.81255 1.96249 
0.637043 0.611365 2.49998 1.27499 1.48756 
2.13755 2.60006 2.36257 0.687556 2.7576 
0.243822 2.662 0.25641 2.76157 1.98749 
1.98746 0.812496 2.2375 0.43762 0.239011 
0.937489 1.23749 0.265441 2.75748 1.88748 
0.887495 0.662532 2.1125 0.30859 0.333972 
0.338417 2.75667 0.587508 1.66254 1.92499 
0.700071 0.737552 0.762612 2.03747 0.987522 
0.999993 1.56252 1.75001 1.56247 0.73767 
1.13752 2.52505 0.434618 1.7125 2.03743 
0.216788 1.15002 2.38754 0.812478 2.06248 
1.68752 0.562526 1.10002 0.837479 1.03749 
2.51243 2.64015 0.662476 0.962483 1.8625 
1.63753 0.837452 2.33757 0.572105 2.46246 
0.269033 1.2 2.01248 2.74017 1.77502 
1.80003 2.56248 0.372206 2.73701 1.24999 
0.21011 1.23747 0.787539 1.42508 1.08753 
2.76012 0.675084 0.937545 0.512561 2.60112 
1.27501 2.35007 1.30004 2.0875 0.260144 
1.93747 1.34986 2.7615 1.64999 2.27495 
2.1625 2.18754 0.462577 2.41249 2.48744 
0.874982 0.216832 2.73957 0.238783 1.54997 
1.87507 2.32504 2.16255 1.37511 1.51256 
1.77503 1.15003 1.40011 0.260056 1.7 
1.92502 0.762536 0.36304 1.82503 0.260289 
1.22499 0.862476 2.24991 2.7407 0.912522 
0.38297 1.675 1.39991 1.82508 1.45008 
0.39513 2.22491 1.24999 1.32507 1.02499 
0.262966 1.17502 1.07502 1.525 0.260185 
1.90004 1.62496 1.05 1.70002 0.238709 
1.85008 2.46243 1.12502 0.503262 1.59995 
1.50001 2.43746 0.700105 1.10004 2.74085 
0.260163 1.37487 0.487568 0.544874 1.75001 
0.874989 0.525089 2.73769 0.598668 2.08747 
0.962543 0.50009 2.73228 0.600024 2.02497 
2.54978 2.19993 2.20008 0.775123 2.62736 
0.260356 1.07501 2.22504 0.91249 2.67465 
2.66664 0.650031 0.650043 2.69347 1.44998 
0.624618 2.73496 0.240455 0.787517 1.91247 
2.10003 1.72498 0.625018 1.94997 1.32489 
1.73749 1.80006 2.15001 0.400279 2.6965 
2.37507 0.949964 0.260953 0.370107 1.2 
0.294751 1.57495 0.687663 2.3 1.58751 
2.06245 1.52511 1.28748 1.47509 2.12508 
0.712701 2.58755 1.01248 0.82494 0.216762 
1.12504 0.517096 0.345035 1.95 1.72499 
2.2625 1.97499 1.99992 0.425166 0.260938 
1.83753 2.28751 0.253909 0.900023 2.12501 
0.260594 1.65009 0.326339 0.750228 1.42495 
0.406901 0.725096 2.71081 2.63742 0.230867 
1.35009 1.87496 1.55006 0.267127 2.43748 
2.53754 0.862458 0.44696 1.00001 1.47501 
2.04997 0.238669 1.67507 1.16253 2.37509 
2.48742 0.475155 0.550074 0.825005 1.04998 
2.41251 2.73945 2.57535 2.52483 0.924977 
2.73724 1.89995 2.40003 1.22495 2.02489 
0.302248 2.35012 0.800033 1.99999 0.800012 
0.41883 2.73861 1.28753 1.76252 1.78754 
0.282407 2.1751 2.71907 1.11253 1.10003 
2.36262 1.83762 0.675293 0.987477 2.68263 
0.379307 1.78757 2.07499 0.368187 1.36227 
0.357093 1.88758 0.375439 0.450111 0.281877 
0.260554 1.06253 2.47492 0.887479 0.238582 
1.61251 1.36267 1.56244 0.950072 0.281355 
2.49989 1.50012 0.750081 1.7125 0.925062 
1.97496 0.849924 2.61257 1.26248 1.3877 
0.260685 1.11257 1.53748 1.43764 1.41267 
0.775057 0.350718 2.31253 2.31254 1.81254 
0.849984 2.28746 1.21249 2.26239 2.7324 
2.51244 0.975049 2.71901 2.7171 1.6875 
2.33759 1.6625 1.62506 1.73748 2.17497 
1.41241 1.16253 1.92495 1.71248 2.65012 
1.84999 2.23735 0.278041 0.57505 1.23748 
1.31258 1.8126 0.282274 1.63747 1.33762 
0.318389 1.8626 1.18751 1.13755 1.61243 
1.51251 2.44989 0.687667 0.488592 1.08757 
2.7204 0.28182 1.38736 0.559132 0.531615 
0.47509 0.459783 1.66269 1.76251 0.812471 
0.78761 2.70262 0.862522 0.99994 2.09998 
1.2625 1.74999 0.937427 0.637661 2.18771 
2.65438 2.21237 2.01236 0.837553 2.6138 
2.21264 0.281868 2.44995 2.38759 0.39083 
2.5371 0.260713 1.88739 1.91255 1.57502 
1.33724 0.355518 2.69275 0.387806 1.24994 
0.282739 1.51272 0.974949 1.21249 1.03749 
2.40004 2.57484 1.60002 2.1501 2.07492 
1.29994 1.46264 2.11262 0.725311 0.238559 
1.02495 1.13753 0.297063 0.512628 2.42496 
2.04989 0.338241 2.25001 1.96249 2.30005 
2.3251 2.0125 0.412669 0.283795 2.27502 
0.88753 2.13751 0.762759 0.431078 0.328955 
0.587613 1.43744 2.71368 0.282204 1.98742 
0.712653 1.53766 0.266602 2.54998 1.18757 
2.36265 0.287407 1.48751 2.03749 1.46248 
0.503109 0.260764 1.17504 0.662631 1.68762 
1.0875 1.58742 0.537648 2.47485 2.70948 
0.586097 1.63765 1.06246 0.837399 2.71802 
2.58774 0.61257 0.899975 1.73746 0.662971 
0.962404 0.812582 1.8624 1.93752 2.66427 
2.56189 1.01248 2.38758 2.08753 0.314147 
1.93744 2.16248 2.71726 1.22497 2.43738 
0.800122 1.77504 0.305144 2.16272 2.03732 
0.850207 2.64069 0.700351 1.12505 1.5999 
2.51229 1.16257 1.24998 1.27504 1.98751 
0.47341 2.06249 1.54993 0.352016 1.72492 
0.443656 2.66934 0.362959 0.437616 1.67531 
0.282176 0.874948 2.69842 1.2374 1.35022 
1.87511 1.42528 2.71611 1.4877 0.73764 
1.91241 1.05004 2.31264 2.18742 2.52483 
2.32505 1.3753 0.282564 0.487607 1.96248 
2.2749 1.40035 0.762634 0.290819 1.10014 
2.42499 2.29998 0.612125 2.4125 0.342088 
0.546362 0.96258 1.69996 0.987517 1.77504 
1.67501 1.15005 1.74995 1.15004 0.302291 
1.42488 1.27496 1.85014 0.637577 2.62512 
1.82504 2.24982 0.304097 2.33768 1.20015 
0.562645 2.49982 1.30009 1.82514 0.304757 
1.65 1.37478 1.32515 1.11251 1.57491 
1.80006 1.17503 1.12508 1.62494 1.52498 
1.07513 0.302515 1.39989 1.70016 0.31471 
0.400033 2.70158 0.688034 1.01236 0.787606 
2.17538 2.02479 2.2248 2.48738 0.825235 
2.62586 2.20034 0.303336 0.949814 2.52461 
0.402718 1.83746 1.17516 2.11248 2.00007 
0.912446 0.282928 0.280417 2.14996 0.362709 