
TITLE     = "DG2D to Tecplot"
VARIABLES = "X"
"Y"
"RHO"
"U"
"V"
"VELOCITY_MAG"
"P"
"T"
"THETA1"
"THETA2"
ZONE T="ZONE 1"
STRANDID=0
ZONETYPE=FEQuadrilateral
DATAPACKING=BLOCK
VARLOCATION=([3-10]=CELLCENTERED)
DT=(SINGLE SINGLE SINGLE SINGLE SINGLE SINGLE SINGLE SINGLE SINGLE SINGLE)

Nodes=13404, Elements=26353
-3.88578e-16 -3.88578e-16 0.05 0.05 
0.14 0.14 -3.88578e-16 -3.88578e-16 -3.88578e-16 
-3.88578e-16 -3.88578e-16 -3.88578e-16 -3.88578e-16 -3.88578e-16 
-3.88578e-16 -3.88578e-16 -3.88578e-16 -3.88578e-16 -3.88578e-16 
-3.88578e-16 -3.88578e-16 -3.88578e-16 -3.88578e-16 -3.88578e-16 
-3.88578e-16 -3.88578e-16 -3.88578e-16 -3.88578e-16 -3.88578e-16 
-3.88578e-16 -3.88578e-16 -3.88578e-16 -3.88578e-16 -3.88578e-16 
-3.88578e-16 -3.88578e-16 -3.88578e-16 -3.88578e-16 -3.88578e-16 
-3.88578e-16 -3.88578e-16 -3.88578e-16 -3.88578e-16 -3.88578e-16 
-3.88578e-16 -3.88578e-16 -3.88578e-16 -3.88578e-16 -3.88578e-16 
-3.88578e-16 -3.88578e-16 -3.88578e-16 -3.88578e-16 -3.88578e-16 
-3.88578e-16 -3.88578e-16 -3.88578e-16 -3.88578e-16 -3.88578e-16 
-3.88578e-16 -3.88578e-16 -3.88578e-16 -3.88578e-16 -3.88578e-16 
-3.88578e-16 -3.88578e-16 -3.88578e-16 -3.88578e-16 -3.88578e-16 
-3.88578e-16 -3.88578e-16 -3.88578e-16 -3.88578e-16 -3.88578e-16 
-3.88578e-16 -3.88578e-16 -3.88578e-16 -3.88578e-16 -3.88578e-16 
-3.88578e-16 -3.88578e-16 -3.88578e-16 -3.88578e-16 -3.88578e-16 
-3.88578e-16 0.049 0.048 0.047 0.046 
0.045 0.044 0.043 0.042 0.041 
0.04 0.039 0.038 0.037 0.036 
0.035 0.034 0.033 0.032 0.031 
0.03 0.029 0.028 0.027 0.026 
0.025 0.024 0.023 0.022 0.021 
0.02 0.019 0.018 0.017 0.016 
0.015 0.014 0.013 0.012 0.011 
0.01 0.009 0.008 0.007 0.006 
0.005 0.004 0.003 0.002 0.001 
0.05 0.05 0.05 0.05 0.05 
0.05 0.05 0.05 0.05 0.05 
0.05 0.05 0.05 0.05 0.05 
0.05 0.05 0.05 0.05 0.05 
0.05 0.05 0.05 0.05 0.05 
0.05 0.05 0.05 0.05 0.05 
0.05 0.05 0.05 0.05 0.05 
0.05 0.05 0.05 0.05 0.05 
0.05 0.05 0.05 0.05 0.05 
0.05 0.05 0.05 0.05 0.05 
0.05 0.05 0.05 0.05 0.05 
0.05 0.05 0.05 0.05 0.05 
0.05 0.05 0.05 0.05 0.05 
0.05 0.05 0.05 0.05 0.05 
0.05 0.05 0.05 0.05 0.05 
0.05 0.05 0.05 0.05 0.05 
0.05 0.05 0.05 0.05 0.05 
0.05 0.05 0.05 0.00100287 0.00200573 
0.0030086 0.00401146 0.00501433 0.00601719 0.00702006 
0.00802292 0.00902579 0.0100287 0.0110315 0.0120344 
0.0130372 0.0140401 0.015043 0.0160458 0.0170487 
0.0180516 0.0190544 0.0200573 0.0210602 0.022063 
0.0230659 0.0240688 0.0250716 0.0260745 0.0270774 
0.0280802 0.0290831 0.030086 0.0310888 0.0320917 
0.0330946 0.0340974 0.0351003 0.0361032 0.037106 
0.0381089 0.0391117 0.0401146 0.0411175 0.0421203 
0.0431232 0.0440865 0.0447816 0.0452978 0.0457992 
0.0463978 0.0469541 0.0475936 0.048233 0.0488725 
0.0494986 0.139 0.138 0.137 0.136 
0.135 0.134 0.133 0.132 0.131 
0.13 0.129 0.128 0.127 0.126 
0.125 0.124 0.123 0.122 0.121 
0.12 0.119 0.118 0.117 0.116 
0.115 0.114 0.113 0.112 0.111 
0.11 0.109 0.108 0.107 0.106 
0.105 0.104 0.103 0.102 0.101 
0.1 0.099 0.098 0.097 0.096 
0.095 0.094 0.093 0.092 0.091 
0.09 0.089 0.088 0.087 0.086 
0.085 0.084 0.083 0.082 0.081 
0.08 0.079 0.078 0.077 0.076 
0.075 0.074 0.073 0.072 0.071 
0.07 0.069 0.068 0.067 0.066 
0.065 0.064 0.063 0.062 0.061 
0.06 0.059 0.058 0.057 0.056 
0.055 0.054 0.053 0.052 0.051 
0.14 0.14 0.14 0.14 0.14 
0.14 0.14 0.14 0.14 0.14 
0.14 0.14 0.14 0.14 0.14 
0.14 0.14 0.14 0.14 0.14 
0.14 0.14 0.14 0.14 0.14 
0.14 0.14 0.14 0.14 0.14 
0.14 0.14 0.14 0.14 0.14 
0.14 0.14 0.14 0.14 0.14 
0.14 0.14 0.14 0.14 0.14 
0.14 0.14 0.14 0.14 0.14 
0.14 0.14 0.14 0.14 0.14 
0.14 0.14 0.14 0.14 0.14 
0.14 0.14 0.14 0.14 0.14 
0.14 0.14 0.14 0.14 0.14 
0.14 0.14 0.14 0.14 0.14 
0.14 0.14 0.14 0.14 0.0505011 
0.051055 0.0516003 0.0521014 0.0526025 0.0531035 
0.0536058 0.0542448 0.0548838 0.0554963 0.0559974 
0.0565531 0.0570966 0.0575977 0.0580988 0.0585998 
0.0591009 0.0596019 0.0601341 0.060845 0.0618341 
0.0628362 0.0638383 0.0648405 0.0658426 0.0668447 
0.0678469 0.068849 0.0698511 0.0708532 0.0718554 
0.0728575 0.0738596 0.0748617 0.0758639 0.076866 
0.0778681 0.0788703 0.0798724 0.0808745 0.0818766 
0.0828788 0.0838809 0.084883 0.0858851 0.0868873 
0.0878894 0.0888915 0.0898936 0.0908958 0.0918979 
0.0929 0.0939022 0.0949043 0.0959064 0.0969085 
0.0979107 0.0989128 0.0999149 0.100917 0.101919 
0.102921 0.103923 0.104926 0.105928 0.10693 
0.107932 0.108934 0.109936 0.110938 0.11194 
0.112943 0.113945 0.114947 0.115949 0.116951 
0.117953 0.118955 0.119957 0.12096 0.121962 
0.122964 0.123966 0.124968 0.12597 0.126972 
0.127974 0.128977 0.129979 0.130981 0.131983 
0.132985 0.133987 0.134989 0.135991 0.136994 
0.137996 0.138998 0.000883542 0.000875546 0.000865393 
0.000865456 0.000864316 0.000865203 0.000865834 0.000865965 
0.000865984 0.000865996 0.000866002 0.000866002 0.000866002 
0.000866001 0.000866001 0.000866001 0.000866001 0.000866001 
0.000866001 0.000866001 0.000866 0.000866 0.000866 
0.000866 0.000865999 0.000865999 0.000865999 0.000866 
0.000866006 0.000866028 0.000866106 0.000866306 0.00086659 
0.000866639 0.00086893 0.000879612 0.000885648 0.000852388 
0.000881959 0.0486153 0.0465213 0.0445134 0.0425104 
0.0405038 0.038501 0.0365002 0.0345 0.0325 
0.0305 0.0285 0.0265 0.0245 0.0225 
0.0205 0.0184999 0.0164999 0.0144998 0.0125005 
0.010503 0.00850783 0.00651542 0.00452694 0.00254167 
0.0495263 0.0494823 0.049531 0.0495346 0.0495377 
0.049515 0.0495384 0.0495262 0.0494842 0.0493355 
0.0491611 0.0491372 0.0491332 0.0491332 0.0491337 
0.0491339 0.049134 0.049134 0.049134 0.049134 
0.049134 0.049134 0.049134 0.049134 0.049134 
0.049134 0.049134 0.049134 0.049134 0.049134 
0.049134 0.049134 0.049134 0.049134 0.049134 
0.0491338 0.0491335 0.0491326 0.0491317 0.049131 
0.0491295 0.0491215 0.0491006 0.0491498 0.00139045 
0.00350668 0.00553231 0.00752511 0.00952586 0.0115322 
0.0135386 0.0155444 0.0175501 0.0195559 0.0215616 
0.0235673 0.0255731 0.0275788 0.0295845 0.0315903 
0.0335962 0.0356025 0.0376095 0.0396184 0.0416342 
0.0436472 0.0450395 0.0461017 0.0473153 0.0485745 
0.000914614 0.00086325 0.000866421 0.000864521 0.000864703 
0.000865619 0.000865934 0.000865975 0.000865989 0.000866 
0.000866003 0.000866002 0.000866001 0.000866001 0.000866001 
0.000866001 0.000866001 0.000866001 0.000866001 0.000866 
0.000866 0.000866 0.000866 0.000865999 0.000865999 
0.000865999 0.000865999 0.000866002 0.000866012 0.000866049 
0.000866171 0.000866433 0.000866608 0.000866962 0.000872897 
0.000885263 0.000874808 0.000851083 0.000844987 0.0475597 
0.0455085 0.0435141 0.041507 0.0395022 0.0375005 
0.0355001 0.0335 0.0315 0.0295 0.0275 
0.0255 0.0235 0.0215 0.0195 0.0174999 
0.0154998 0.0135 0.0115013 0.00950488 0.00751082 
0.00552086 0.00352867 0.00164885 0.0495113 0.0495056 
0.0495488 0.0495291 0.0495014 0.0495247 0.0495105 
0.0494468 0.0495499 0.0492079 0.0491443 0.0491341 
0.049133 0.0491335 0.0491338 0.049134 0.049134 
0.049134 0.049134 0.049134 0.049134 0.049134 
0.049134 0.049134 0.049134 0.049134 0.049134 
0.049134 0.049134 0.049134 0.049134 0.049134 
0.049134 0.049134 0.0491339 0.0491337 0.0491331 
0.0491321 0.0491312 0.0491304 0.0491268 0.0491126 
0.0490868 0.00245968 0.00452718 0.00652904 0.00852445 
0.0105289 0.0125355 0.0145415 0.0165473 0.018553 
0.0205587 0.0225645 0.0245702 0.0265759 0.0285817 
0.0305874 0.0325932 0.0345993 0.036606 0.0386138 
0.0406251 0.042647 0.0444645 0.0455314 0.046695 
0.0479608 0.0490984 0.00176106 0.0481238 0.00172973 
0.00172963 0.00172893 0.0440392 0.00173106 0.0019196 
0.00173186 0.00173195 0.00173197 0.001732 0.00173201 
0.001732 0.001732 0.001732 0.001732 0.001732 
0.001732 0.001732 0.001732 0.001732 0.001732 
0.001732 0.001732 0.001732 0.001732 0.001732 
0.001732 0.001732 0.00173201 0.00173207 0.00173226 
0.00173272 0.00173328 0.00173291 0.00173918 0.00176637 
0.0017712 0.00167357 0.00186864 0.0017285 0.046008 
0.0450357 0.042016 0.0400042 0.0380009 0.0360001 
0.034 0.032 0.03 0.028 0.026 
0.024 0.022 0.02 0.0179999 0.0159997 
0.0139996 0.0120011 0.0100068 0.00801713 0.006034 
0.00406347 0.00304728 0.0490119 0.0489587 0.00171832 
0.0490215 0.0490498 0.049063 0.0490214 0.0490611 
0.0490223 0.0490468 0.00301974 0.0490288 0.0489474 
0.0484749 0.0483482 0.0482801 0.0482668 0.0482663 
0.0482672 0.0482678 0.048268 0.048268 0.048268 
0.048268 0.048268 0.048268 0.048268 0.048268 
0.048268 0.048268 0.048268 0.048268 0.048268 
0.048268 0.048268 0.048268 0.048268 0.048268 
0.048268 0.0482678 0.0482672 0.0482658 0.0482636 
0.0482619 0.0482596 0.0482498 0.0482155 0.00505658 
0.00405219 0.0489962 0.00702858 0.009023 0.0110299 
0.0130372 0.015043 0.0170487 0.0190544 0.0210602 
0.0230659 0.0250716 0.0270774 0.0290831 0.0310889 
0.0330949 0.0351015 0.0371097 0.039122 0.041146 
0.0432253 0.0442323 0.0450582 0.00173289 0.00173164 
0.0463959 0.0476702 0.0483755 0.0017301 0.00173526 
0.0490317 0.0457779 0.00173192 0.00173196 0.00173199 
0.001732 0.00173201 0.001732 0.001732 0.001732 
0.001732 0.001732 0.001732 0.001732 0.001732 
0.001732 0.001732 0.001732 0.001732 0.001732 
0.001732 0.001732 0.001732 0.00173201 0.00173203 
0.00173212 0.00173242 0.00173301 0.00173314 0.0017338 
0.00175002 0.00177718 0.00173695 0.00171471 0.0470231 
0.0430278 0.0410092 0.0390023 0.0370003 0.035 
0.033 0.031 0.029 0.027 0.025 
0.023 0.021 0.0189999 0.0169998 0.0149996 
0.0130001 0.0110036 0.00901186 0.00702457 0.00504822 
0.0490749 0.0490445 0.0490431 0.0490975 0.0483019 
0.0482703 0.048266 0.0482667 0.0482676 0.0482679 
0.048268 0.048268 0.048268 0.048268 0.048268 
0.048268 0.048268 0.048268 0.048268 0.048268 
0.048268 0.048268 0.048268 0.048268 0.048268 
0.048268 0.048268 0.048268 0.0482679 0.0482676 
0.0482666 0.0482646 0.0482625 0.0482609 0.0482568 
0.0482353 0.0481911 0.0120339 0.010026 0.00604059 
0.00802288 0.0140402 0.0160458 0.0180515 0.0200573 
0.022063 0.0240688 0.0260745 0.0280802 0.030086 
0.0320918 0.034098 0.0361051 0.0381147 0.0401306 
0.0421732 0.0470052 0.0487916 0.0385016 0.0425318 
0.002598 0.0025979 0.00259793 0.002598 0.00259801 
0.00259801 0.00259801 0.00259799 0.002598 0.002598 
0.00259789 0.00751475 0.002598 0.0416748 0.002598 
0.002598 0.002598 0.002598 0.002598 0.002598 
0.002598 0.002598 0.002598 0.002598 0.002598 
0.00259804 0.00259814 0.00259852 0.00259937 0.00260017 
0.00259816 0.0026116 0.00266685 0.00265497 0.00259202 
0.00555392 0.0455976 0.0185529 0.0435573 0.0473679 
0.00259416 0.0474005 0.00241451 0.0405071 0.0395035 
0.00267444 0.0365 0.0344999 0.0325 0.0305 
0.0285 0.0265 0.0245 0.0225 0.0204999 
0.0184998 0.0164995 0.0144991 0.0125001 0.0105068 
0.00852042 0.00654062 0.0484942 0.0485651 0.0025898 
0.0485309 0.00254305 0.04856 0.0485783 0.0464607 
0.0473988 0.0454322 0.0485973 0.0474301 0.0482542 
0.0485041 0.002598 0.047286 0.04747 0.047401 
0.0473986 0.0485942 0.0473996 0.0474015 0.0474019 
0.047402 0.047402 0.047402 0.047402 0.047402 
0.047402 0.047402 0.047402 0.047402 0.047402 
0.047402 0.047402 0.047402 0.047402 0.047402 
0.047402 0.047402 0.047402 0.0474018 0.0474012 
0.0473993 0.0473955 0.0473923 0.0473893 0.0473822 
0.0415158 0.047307 0.00259732 0.00266613 0.0115325 
0.0055521 0.00652539 0.0105276 0.0486419 0.0135391 
0.0155444 0.01755 0.0473361 0.0205587 0.0225645 
0.0245702 0.0265759 0.0285817 0.0305874 0.0325934 
0.0346002 0.036609 0.0386237 0.04065 0.043932 
0.002598 0.0447962 0.00259622 0.00259781 0.0473384 
0.0460904 0.00260414 0.0475435 0.00259592 0.0467066 
0.0125362 0.00952186 0.00259219 0.002598 0.048576 
0.0427304 0.002598 0.002598 0.002598 0.0025979 
0.00259796 0.00259801 0.00259801 0.002598 0.002598 
0.002598 0.002598 0.002598 0.002598 0.002598 
0.002598 0.002598 0.002598 0.00259802 0.00259808 
0.00259827 0.00259882 0.0025999 0.00259942 0.00259987 
0.00263565 0.00268078 0.00257721 0.0446024 0.0215616 
0.00362553 0.0375004 0.0354999 0.0334999 0.0315 
0.0295 0.0275 0.0255 0.0235 0.0215 
0.0194999 0.0174998 0.0154994 0.0134992 0.0115023 
0.00951348 0.00753081 0.00364087 0.0485447 0.0485746 
0.0485629 0.047409 0.0474018 0.00458679 0.0474011 
0.047402 0.047402 0.047402 0.047402 0.047402 
0.047402 0.047402 0.047402 0.047402 0.047402 
0.047402 0.047402 0.047402 0.047402 0.047402 
0.047402 0.047402 0.047402 0.0474019 0.0474015 
0.0474003 0.0473973 0.0473933 0.0473911 0.0473862 
0.00851591 0.00460083 0.0165472 0.0145418 0.0235673 
0.0195558 0.0255731 0.0275788 0.0295845 0.0315904 
0.0335965 0.0356042 0.0376148 0.0396345 0.0479437 
0.00261053 0.0476431 0.0485504 0.025 0.046536 
0.00346399 0.0339998 0.00346404 0.003464 0.00346402 
0.003464 0.00346398 0.0120364 0.0465302 0.00346384 
0.003464 0.003464 0.0380002 0.003464 0.00346402 
0.00346381 0.00346401 0.00346381 0.00346399 0.0441048 
0.003464 0.003464 0.003464 0.00345326 0.003464 
0.00902226 0.0391362 0.003464 0.0420245 0.003464 
0.00346401 0.003464 0.0080012 0.003464 0.00346418 
0.00346454 0.00346548 0.0034673 0.00346493 0.00346365 
0.00353976 0.0210601 0.003464 0.0240688 0.00411736 
0.030086 0.046536 0.0465343 0.0349997 0.0359996 
0.0319999 0.03 0.028 0.026 0.00359887 
0.023 0.0209999 0.0189998 0.0169995 0.0149987 
0.0129983 0.0110042 0.010012 0.0453135 0.0480782 
0.0465332 0.0480576 0.046536 0.003464 0.0481118 
0.0480671 0.003464 0.046536 0.003464 0.00346068 
0.00350568 0.003464 0.0463862 0.0465822 0.00506041 
0.00346402 0.0465355 0.0465359 0.0465358 0.046536 
0.046536 0.0465351 0.046536 0.046536 0.046536 
0.0465345 0.046536 0.046536 0.046536 0.00704799 
0.046536 0.046536 0.046536 0.046536 0.046536 
0.046536 0.046536 0.046536 0.046536 0.0465359 
0.0465356 0.0465344 0.0465307 0.0465238 0.0465202 
0.003464 0.04477 0.0110324 0.00346391 0.0230659 
0.0482435 0.003464 0.0170485 0.00334094 0.0150432 
0.0190543 0.00346401 0.022063 0.0260745 0.0280802 
0.0290831 0.0200573 0.032092 0.0340986 0.0361076 
0.0381231 0.0466357 0.0452326 0.003463 0.00346391 
0.00803178 0.0465099 0.0140409 0.0476146 0.0400042 
0.0100255 0.00345431 0.0465316 0.003464 0.0130388 
0.0411726 0.0180514 0.0034568 0.0034638 0.0481375 
0.00605603 0.003464 0.0390016 0.0465486 0.0430483 
0.0465146 0.00346367 0.0160457 0.003464 0.0480495 
0.048088 0.022 0.027 0.00346401 0.003464 
0.046536 0.003464 0.003464 0.00351578 0.00359334 
0.00348916 0.00346732 0.00901435 0.00346408 0.0034643 
0.00346494 0.0034664 0.00346037 0.0463969 0.0270773 
0.0464793 0.0401537 0.0369997 0.0329999 0.031 
0.029 0.024 0.0199999 0.0179997 0.0159992 
0.0139983 0.012 0.0481302 0.00328062 0.0421934 
0.0480906 0.0464015 0.0250716 0.00346401 0.0465301 
0.0481513 0.0477655 0.046536 0.046536 0.046536 
0.046536 0.046536 0.046536 0.046536 0.046536 
0.046536 0.046536 0.046536 0.046536 0.0465359 
0.0465358 0.0465351 0.0465328 0.0465271 0.046521 
0.0465194 0.0330951 0.0410118 0.00503992 0.003464 
0.00348331 0.0351029 0.0310889 0.0371148 0.0441791 
0.0457779 0.0480492 0.0470757 0.003464 0.00698726 
0.04651 0.048113 0.0466946 0.0432205 0.0034348 
0.0475862 0.0405049 0.0324998 0.011499 0.0045687 
0.0255 0.0456683 0.04567 0.0235 0.0374986 
0.0456488 0.04567 0.00432956 0.00433004 0.00433001 
0.0344995 0.0245702 0.00433004 0.04567 0.00433403 
0.04567 0.00433 0.00433159 0.00431624 0.0456621 
0.0406809 0.0043335 0.00448037 0.0356065 0.0043304 
0.00433004 0.00433001 0.0417034 0.0043139 0.00433019 
0.00433004 0.046077 0.00433106 0.00433 0.00433492 
0.00850416 0.0174996 0.0043839 0.00433545 0.0125403 
0.00432272 0.0265759 0.0334997 0.00433244 0.0475935 
0.00433 0.00432999 0.0376235 0.0275 0.00433 
0.0354992 0.0295 0.0364988 0.0304999 0.0265 
0.0043298 0.04567 0.0194998 0.0214999 0.00853405 
0.0456538 0.0285 0.0184997 0.0154985 0.0134966 
0.0445667 0.04567 0.0285816 0.00433 0.04567 
0.00433 0.0456456 0.00433 0.0456683 0.00433004 
0.00433 0.00447711 0.00433 0.0456696 0.00433367 
0.0476403 0.04567 0.00433002 0.04567 0.0470822 
0.04567 0.0456691 0.0124963 0.04567 0.04567 
0.0456588 0.04567 0.0456641 0.04567 0.00433 
0.00452721 0.04567 0.0315905 0.04567 0.00433 
0.04567 0.04567 0.0456619 0.04567 0.04567 
0.0456699 0.0456695 0.0456691 0.0456668 0.0204999 
0.04566 0.025573 0.0456477 0.0456594 0.042529 
0.00598848 0.00433001 0.00432993 0.0235673 0.0225 
0.0454266 0.0396563 0.00433 0.00433 0.00433001 
0.04567 0.00433 0.0275788 0.00433 0.0305874 
0.0335972 0.0449189 0.00433 0.04567 0.0457275 
0.0456297 0.00432967 0.00432861 0.0245 0.00433 
0.00431066 0.00433 0.0456699 0.036613 0.0105359 
0.00433008 0.0145423 0.00433016 0.038636 0.0295845 
0.00432964 0.0346011 0.0043288 0.04567 0.0384988 
0.04567 0.04567 0.04567 0.04567 0.0456698 
0.0115395 0.0456338 0.00431453 0.00433 0.0415126 
0.00437492 0.045667 0.00951894 0.0455733 0.00534799 
0.047646 0.00753912 0.0456843 0.04567 0.047658 
0.0466614 0.00433 0.00433061 0.0427008 0.0164993 
0.0095255 0.0135413 0.00432999 0.00433 0.00433 
0.0475733 0.0195558 0.0314999 0.0155444 0.00640345 
0.04567 0.0144975 0.0456478 0.0105064 0.04567 
0.0475843 0.00433 0.00433003 0.0477018 0.0435465 
0.0395001 0.04567 0.0472076 0.04567 0.0325936 
0.0456648 0.04567 0.04567 0.0456698 0.00418264 
0.00432418 0.0215616 0.0475578 0.0205587 0.0444497 
0.0476311 0.00746715 0.0175498 0.00556713 0.0185528 
0.0225645 0.00433 0.0457982 0.0065757 0.0436676 
0.0456641 0.016547 0.00432999 0.0475613 0.0471363 
0.044804 0.00518561 0.028 0.0448038 0.00517302 
0.00519606 0.0340998 0.0339993 0.005196 0.0359979 
0.00519599 0.044804 0.0349989 0.044804 0.0229999 
0.00903671 0.0422669 0.025 0.0130432 0.00520227 
0.00532181 0.0447801 0.0447944 0.044804 0.044804 
0.0399965 0.00805634 0.00432999 0.024 0.00519789 
0.046353 0.029 0.0448037 0.00519646 0.0309998 
0.005196 0.00519603 0.0299999 0.026 0.0240687 
0.0330956 0.0447855 0.0149978 0.0369969 0.0179996 
0.00519609 0.044804 0.044804 0.0447939 0.0361115 
0.0129932 0.044804 0.044804 0.0447659 0.005196 
0.005196 0.005196 0.00519722 0.044804 0.044804 
0.044804 0.0448023 0.005196 0.00519601 0.0477075 
0.044804 0.0412282 0.0448033 0.044804 0.044804 
0.0109948 0.00519546 0.0381356 0.044804 0.044908 
0.0320923 0.005196 0.0447751 0.044804 0.0430449 
0.0463606 0.044803 0.044798 0.044804 0.0199998 
0.0447856 0.0447897 0.00433 0.044804 0.0189997 
0.00519683 0.0448008 0.0401877 0.005196 0.044804 
0.0447507 0.0470686 0.044804 0.0448097 0.031089 
0.0470618 0.0451233 0.0319997 0.044804 0.044804 
0.044804 0.00516969 0.015999 0.044804 0.00519599 
0.0371221 0.0447282 0.00519664 0.0391557 0.0351043 
0.00519741 0.00519606 0.0448023 0.045504 0.00519601 
0.0448039 0.0379957 0.00519519 0.044804 0.0209999 
0.044804 0.044804 0.044804 0.044804 0.044804 
0.0448039 0.005196 0.00519608 0.0051619 0.005196 
0.0410014 0.00520819 0.0448009 0.0447679 0.00902712 
0.0440353 0.0447848 0.0470717 0.0140427 0.0443156 
0.005196 0.00519604 0.00520353 0.027 0.00519584 
0.005196 0.0472005 0.0110494 0.010049 0.00519598 
0.0051838 0.00520462 0.00514321 0.00527284 0.0329996 
0.00519977 0.0180512 0.0200572 0.00519599 0.0468691 
0.005196 0.0250716 0.0471631 0.0054737 0.0169994 
0.043244 0.0139955 0.0458658 0.0119915 0.044804 
0.044804 0.0270773 0.0466379 0.044804 0.022063 
0.00568172 0.0100058 0.0470782 0.0447984 0.0473282 
0.005196 0.005196 0.0456636 0.0420186 0.0448035 
0.0389951 0.00519485 0.0260744 0.0210601 0.00519602 
0.005196 0.005196 0.0219999 0.029083 0.005196 
0.005196 0.00519601 0.0447878 0.0280801 0.04712 
0.005195 0.00518843 0.005196 0.0051961 0.005196 
0.00519621 0.0190542 0.030086 0.0230659 0.0448496 
0.00700331 0.0447816 0.005196 0.0120461 0.00800225 
0.0170482 0.005196 0.0470937 0.00519555 0.0150432 
0.043938 0.00519853 0.00606675 0.0465821 0.0414936 
0.00606209 0.0425269 0.00606012 0.043928 0.0160454 
0.00606213 0.0224999 0.043938 0.00605981 0.0354972 
0.00609486 0.00949403 0.0376327 0.0439379 0.0439366 
0.0465386 0.0134925 0.0470887 0.00604201 0.0315907 
0.006062 0.0245 0.00651342 0.043938 0.00519598 
0.005196 0.043938 0.0235 0.006062 0.0450352 
0.0439067 0.0144968 0.043938 0.0304998 0.0439281 
0.00606217 0.0255 0.0467814 0.0439595 0.0439136 
0.043938 0.0439371 0.0164995 0.0439377 0.043938 
0.006062 0.0464612 0.0114807 0.006062 0.0460541 
0.0174996 0.00606199 0.006062 0.043938 0.00606444 
0.043938 0.0465549 0.0384887 0.0439028 0.0394862 
0.0104809 0.0417988 0.0439374 0.043938 0.043938 
0.043938 0.043938 0.0135446 0.006062 0.043938 
0.00606159 0.00607492 0.0366196 0.043938 0.00606198 
0.00692126 0.0461001 0.043938 0.0439376 0.00958394 
0.0334991 0.0439213 0.0184996 0.043938 0.00600464 
0.043938 0.0275 0.0407317 0.034603 0.0194997 
0.006062 0.0314997 0.043938 0.0265 0.043938 
0.043938 0.0364955 0.0335982 0.0154989 0.043938 
0.0439211 0.0439322 0.043938 0.00606201 0.0396837 
0.0285 0.0356091 0.00606216 0.0439346 0.0124866 
0.0439379 0.00629166 0.043938 0.0374924 0.00606243 
0.00606112 0.0204998 0.043938 0.043938 0.0439379 
0.043938 0.043938 0.0439379 0.00606201 0.0324995 
0.00601004 0.006062 0.0404855 0.00603437 0.0439349 
0.00606198 0.006062 0.00607048 0.0466602 0.00606514 
0.0438879 0.00606093 0.0439322 0.0060672 0.0438971 
0.00606306 0.0205587 0.00858123 0.00606198 0.00589827 
0.0325943 0.00612846 0.0214999 0.00606197 0.0438733 
0.006062 0.0436933 0.0305875 0.0455768 0.0295845 
0.0445073 0.00611204 0.0185526 0.0466092 0.0245701 
0.00766528 0.0386514 0.043938 0.0465355 0.0115596 
0.0085289 0.0344986 0.043938 0.0466089 0.0429409 
0.0060621 0.0145423 0.0457635 0.00606199 0.043938 
0.043908 0.0294999 0.00607455 0.00606195 0.0449692 
0.00606205 0.006062 0.0105724 0.0265758 0.006062 
0.00606364 0.0060621 0.0235673 0.00606202 0.00606567 
0.0285815 0.0225644 0.043938 0.00604545 0.006062 
0.006062 0.0275787 0.00606252 0.0195558 0.043936 
0.006062 0.00606411 0.0439298 0.0439044 0.0125495 
0.0175495 0.0438917 0.006062 0.006062 0.0139972 
0.0461373 0.0430209 0.0330967 0.043072 0.043072 
0.0069282 0.00693188 0.043072 0.0430694 0.00692373 
0.043072 0.0457729 0.0430682 0.0160004 0.0215616 
0.00606202 0.00692801 0.0430571 0.0320928 0.00693258 
0.0409608 0.0455632 0.025573 0.0463115 0.0430663 
0.0110825 0.0455303 0.0210602 0.0430719 0.0466331 
0.023 0.0438 0.0379836 0.0451283 0.00692801 
0.024 0.0349968 0.00784899 0.025 0.00692798 
0.0299998 0.0101126 0.043072 0.043072 0.00692796 
0.0209998 0.00606223 0.043072 0.043054 0.0458284 
0.00893375 0.0430719 0.0430619 0.043072 0.043072 
0.00692702 0.0430718 0.0351076 0.0460878 0.0109566 
0.043072 0.00994499 0.0430715 0.027 0.043072 
0.00681677 0.0430047 0.0165463 0.043072 0.0371294 
0.00756155 0.043072 0.0419493 0.00693387 0.043072 
0.0430712 0.043072 0.0430441 0.0179996 0.0389749 
0.0412715 0.00692801 0.0189996 0.00692801 0.0309996 
0.00692801 0.0430718 0.0329989 0.043072 0.043072 
0.026 0.043072 0.043072 0.0359946 0.0341009 
0.006062 0.00692796 0.0150002 0.043072 0.0430456 
0.017 0.0430622 0.043072 0.00692801 0.0219999 
0.0402136 0.006062 0.028 0.0361157 0.00692832 
0.0430656 0.043072 0.0119744 0.0430717 0.00606203 
0.00725944 0.00694143 0.0155436 0.00692337 0.0199998 
0.043072 0.043072 0.0430719 0.043072 0.043072 
0.0391722 0.0430719 0.00692801 0.0319994 0.00692825 
0.00688814 0.0430703 0.00692801 0.0399676 0.00692797 
0.006928 0.0069376 0.043072 0.00690036 0.006928 
0.043966 0.0129888 0.029083 0.00692829 0.00693363 
0.0447362 0.0130484 0.0190543 0.00916126 0.0451783 
0.00693285 0.00708253 0.006062 0.0250715 0.0120624 
0.022063 0.0310892 0.00692554 0.006062 0.006928 
0.0459967 0.00688154 0.006928 0.00692809 0.043072 
0.043072 0.006928 0.0270772 0.0460277 0.0069302 
0.0180511 0.043072 0.00692812 0.0430707 0.0429385 
0.046175 0.043017 0.00692798 0.00692799 0.0439225 
0.00692783 0.0433682 0.006928 0.0069292 0.00692801 
0.0432347 0.00693139 0.0240687 0.0423314 0.00692622 
0.00692802 0.0381467 0.0369898 0.006928 0.033998 
0.0230658 0.0429863 0.0460997 0.00692799 0.0200573 
0.0289999 0.0430101 0.0260743 0.0430317 0.0430365 
0.00694621 0.00684731 0.006928 0.014042 0.00692826 
0.0300861 0.00778361 0.0459854 0.0175001 0.0124883 
0.0418077 0.042205 0.00779055 0.042206 0.0421882 
0.044629 0.0422058 0.00778846 0.0135025 0.0265 
0.0422012 0.0215616 0.0334976 0.0356131 0.0461789 
0.042206 0.0421872 0.00779401 0.0421989 0.0452595 
0.042206 0.0422036 0.0280801 0.042206 0.0304996 
0.0422059 0.0422059 0.0384675 0.042206 0.042206 
0.042196 0.03764 0.00820062 0.042206 0.00839308 
0.0404396 0.0456484 0.0422057 0.0170476 0.0450165 
0.0422056 0.0423775 0.042206 0.0422046 0.042206 
0.0428461 0.042206 0.042206 0.0275 0.0429585 
0.00692816 0.042206 0.00782669 0.042206 0.0414268 
0.00770434 0.0204999 0.00692856 0.042206 0.00779404 
0.036489 0.0106086 0.0421757 0.00779401 0.0245 
0.042206 0.0456788 0.00692801 0.0184998 0.00693264 
0.0285 0.00779401 0.0421241 0.042206 0.0255 
0.042206 0.042206 0.00694926 0.0421906 0.042206 
0.00779401 0.0214999 0.0344964 0.0407383 0.006928 
0.0421941 0.0366254 0.00780593 0.0422055 0.00692804 
0.0078088 0.0225 0.016044 0.00778495 0.0194998 
0.042206 0.042206 0.0422058 0.042206 0.042206 
0.0396958 0.00779401 0.0314993 0.0325954 0.042206 
0.0422027 0.0394507 0.00779394 0.042206 0.0422059 
0.00692806 0.0295846 0.0145052 0.0421225 0.0077946 
0.0275786 0.00779689 0.0452962 0.042206 0.00779401 
0.00753759 0.00965655 0.0115805 0.00780256 0.0150413 
0.00801328 0.00779399 0.042161 0.0315912 0.006928 
0.0421427 0.0455172 0.00794136 0.006928 0.043887 
0.0155036 0.0195561 0.0455168 0.042206 0.0324986 
0.0185531 0.0135425 0.045799 0.00779173 0.00779395 
0.00937438 0.00779397 0.0386652 0.0294999 0.00780206 
0.043076 0.00779402 0.0374813 0.0443524 0.00779427 
0.007794 0.00780052 0.00779401 0.042206 0.0245701 
0.00779428 0.0114578 0.0235 0.0165016 0.00779401 
0.042206 0.00779399 0.042206 0.0354935 0.0346047 
0.00779394 0.00785205 0.00779393 0.0421692 0.0205589 
0.0125547 0.0421025 0.0265757 0.0104093 0.00779862 
0.00779439 0.0225644 0.00779663 0.0305877 0.007794 
0.0077945 0.00779401 0.00779399 0.0285816 0.0077935 
0.0255729 0.0420633 0.0413396 0.00779401 0.0349932 
0.04134 0.0443843 0.0413089 0.0379684 0.0412932 
0.028 0.04134 0.00779536 0.0130231 0.04134 
0.00779451 0.032997 0.0413399 0.04134 0.04134 
0.04134 0.00782253 0.0175497 0.0413187 0.0412505 
0.006928 0.0413379 0.00866002 0.0434202 0.00880309 
0.0413376 0.0413313 0.0419777 0.04134 0.0454803 
0.04134 0.0413356 0.0391872 0.0413397 0.00863795 
0.0145387 0.04134 0.0240001 0.00780113 0.0413397 
0.04134 0.0413395 0.0200004 0.0448613 0.0435316 
0.00779423 0.0235672 0.04134 0.00779401 0.0399051 
0.0413392 0.00865506 0.007794 0.0160051 0.04134 
0.00866306 0.00866002 0.00869448 0.0446983 0.0413265 
0.00779413 0.04134 0.0359884 0.04134 0.0335997 
0.0170021 0.0180005 0.0413227 0.0413399 0.0361219 
0.0381559 0.04134 0.0250001 0.04134 0.04134 
0.04134 0.0299996 0.04134 0.00866001 0.0210002 
0.0339954 0.0423982 0.0412523 0.0371361 0.00874111 
0.0260001 0.0413392 0.00779405 0.00865352 0.0413252 
0.0220001 0.0165457 0.00864855 0.0190005 0.04134 
0.04134 0.0413395 0.04134 0.04134 0.0402167 
0.00866002 0.0309992 0.04134 0.0413338 0.0413179 
0.0389443 0.00779463 0.0289999 0.0413398 0.0450722 
0.0330988 0.0140201 0.00779401 0.00779849 0.00779399 
0.0412912 0.0412335 0.041269 0.0120048 0.0290831 
0.00865999 0.0320938 0.0319982 0.007794 0.043332 
0.00901426 0.0150113 0.04134 0.0200579 0.00866002 
0.02808 0.00865992 0.0190554 0.0250714 0.00866104 
0.00866 0.0140339 0.0101132 0.0341038 0.04134 
0.00865995 0.0443533 0.00865999 0.0240686 0.00866038 
0.0270001 0.00864019 0.0421133 0.00865999 0.0408979 
0.00866002 0.00865476 0.00865874 0.00867348 0.00866022 
0.00866883 0.0369813 0.00867225 0.00866002 0.0230001 
0.0411906 0.0220631 0.00865997 0.0351101 0.0155412 
0.00865995 0.00882391 0.04134 0.0425004 0.00866001 
0.0130372 0.00779399 0.0270771 0.04134 0.0413399 
0.00866055 0.0210604 0.00866543 0.00779408 0.0440339 
0.00866097 0.0109483 0.0300863 0.0111029 0.00866098 
0.0086599 0.00866002 0.040474 0.040474 0.040474 
0.0404731 0.0160439 0.0294998 0.0195018 0.0403684 
0.0424862 0.00866075 0.0450215 0.0180527 0.038458 
0.0404702 0.0285817 0.0225004 0.040474 0.0165055 
0.0404722 0.0205013 0.0354876 0.0120577 0.0404733 
0.0404492 0.0404699 0.00952602 0.0404739 0.0150376 
0.0364814 0.040474 0.040474 0.0095259 0.040474 
0.040474 0.0404738 0.040474 0.00865999 0.00866298 
0.031498 0.0394273 0.00866002 0.0275001 0.040474 
0.0404437 0.00866576 0.00976498 0.00866072 0.0324964 
0.00952604 0.0404731 0.0260742 0.040474 0.040474 
0.0404733 0.017503 0.00866082 0.0230658 0.0386809 
0.040474 0.00960838 0.037473 0.040474 0.0245002 
0.040474 0.040474 0.040474 0.0404661 0.0125784 
0.00865989 0.040474 0.040474 0.0334944 0.0416678 
0.0255002 0.0404728 0.00866004 0.00948037 0.0404961 
0.0215007 0.00950255 0.017049 0.0185021 0.040474 
0.040474 0.040474 0.0404731 0.040474 0.040474 
0.0304993 0.0235003 0.0404739 0.040463 0.0404736 
0.00948587 0.0310897 0.0411288 0.00866951 0.00779401 
0.040474 0.036632 0.0106592 0.0404237 0.040474 
0.0403603 0.0403946 0.00952599 0.0295849 0.00866002 
0.0325977 0.00866 0.00866001 0.00872077 0.007794 
0.0155108 0.0195577 0.0404344 0.00954722 0.00952602 
0.0225645 0.00952599 0.0145321 0.040474 0.0344909 
0.00954733 0.0285 0.00954226 0.0411805 0.00952598 
0.0245699 0.0086602 0.00866024 0.00950314 0.00952598 
0.0403011 0.00952603 0.00952294 0.00952664 0.00952604 
0.0404738 0.00952604 0.0095278 0.0265001 0.00952586 
0.0135569 0.00952606 0.00952765 0.040458 0.0397207 
0.00952595 0.0356172 0.040474 0.0115827 0.00952644 
0.0135208 0.00951409 0.00865999 0.0376505 0.0275785 
0.00951554 0.0404056 0.00951609 0.00952672 0.0407381 
0.0215618 0.0404463 0.00866152 0.00953654 0.0086601 
0.00980063 0.0336031 0.0205594 0.0255727 0.0175541 
0.0210023 0.0115305 0.0396075 0.039608 0.0250004 
0.00865999 0.039606 0.039608 0.0396078 0.039608 
0.0379668 0.00952707 0.039608 0.00953658 0.0396065 
0.0145262 0.0395794 0.018556 0.039608 0.0280002 
0.0389794 0.0290001 0.0396029 0.039604 0.00952603 
0.0235672 0.0155434 0.0359785 0.00952727 0.0346091 
0.0103727 0.0396066 0.0396079 0.00952603 0.00952474 
0.0105747 0.00952598 0.0309983 0.00953203 0.0165507 
0.00952619 0.0414466 0.039608 0.0410627 0.00952748 
0.0095277 0.0319963 0.0265755 0.0339886 0.039608 
0.039608 0.0349829 0.039608 0.0369725 0.039608 
0.039608 0.039608 0.0396074 0.0170092 0.039608 
0.0103109 0.039608 0.039608 0.010305 0.039608 
0.039608 0.0396003 0.00952622 0.039608 0.039608 
0.032993 0.0260003 0.0396067 0.00952604 0.0396065 