
TITLE     = "DG2D to Tecplot"
VARIABLES = "X"
"Y"
"RHO"
"U"
"V"
"VELOCITY_MAG"
"P"
"T"
"THETA1"
"THETA2"
ZONE T="ZONE 1"
STRANDID=0
ZONETYPE=FEQuadrilateral
DATAPACKING=BLOCK
VARLOCATION=([3-10]=CELLCENTERED)
DT=(SINGLE SINGLE SINGLE SINGLE SINGLE SINGLE SINGLE SINGLE SINGLE SINGLE)

Nodes=548, Elements=1006
0.05 0.05 -3.88578e-16 -3.88578e-16 
0.14 0.14 -3.88578e-16 -3.88578e-16 -3.88578e-16 
-3.88578e-16 -3.88578e-16 -3.88578e-16 -3.88578e-16 -3.88578e-16 
-3.88578e-16 -3.88578e-16 -3.88578e-16 -3.88578e-16 -3.88578e-16 
-3.88578e-16 -3.88578e-16 0.045 0.04 0.035 
0.03 0.025 0.02 0.015 0.01 
0.005 0.05 0.05 0.05 0.05 
0.05 0.05 0.05 0.05 0.05 
0.05 0.05 0.05 0.05 0.05 
0.05 0.005 0.01 0.015 0.02 
0.025 0.03 0.035 0.04 0.045 
0.135 0.13 0.125 0.12 0.115 
0.11 0.105 0.1 0.095 0.09 
0.085 0.08 0.075 0.07 0.065 
0.06 0.055 0.14 0.14 0.14 
0.14 0.14 0.14 0.14 0.14 
0.14 0.14 0.14 0.14 0.14 
0.14 0.14 0.055 0.06 0.065 
0.07 0.075 0.08 0.085 0.09 
0.095 0.1 0.105 0.11 0.115 
0.12 0.125 0.13 0.135 0.00441872 
0.00441736 0.004436 0.00447963 0.00443661 0.00442809 
0.00446324 0.0431093 0.0326026 0.0225849 0.012701 
0.0456369 0.0455014 0.0454191 0.0454932 0.0455855 
0.045728 0.0455948 0.00686385 0.0173913 0.0275096 
0.0374057 0.00459018 0.00438888 0.00447111 0.00446296 
0.00440999 0.00444058 0.0041588 0.0275527 0.0378107 
0.0176153 0.00824326 0.0454589 0.0454265 0.04545 
0.0455365 0.045657 0.0457159 0.0458195 0.0121629 
0.0224825 0.0324913 0.0418324 0.00884743 0.0407955 
0.00896493 0.00883337 0.00884395 0.0202569 0.0089191 
0.00960327 0.00913755 0.0409532 0.00891496 0.0299881 
0.0251115 0.0351123 0.0407922 0.0406239 0.00869536 
0.0152134 0.040863 0.0411027 0.0413788 0.0414018 
0.0147973 0.0250314 0.035068 0.00897282 0.00884337 
0.00878903 0.00894468 0.0408949 0.0412111 0.0411742 
0.0410198 0.0415391 0.0199257 0.0300758 0.0181923 
0.0375368 0.0321532 0.0131811 0.0134605 0.0361954 
0.01281 0.0365476 0.0132023 0.0138665 0.0276681 
0.0224389 0.0368659 0.0372007 0.01732 0.0364307 
0.0130739 0.0369863 0.013514 0.0134359 0.0360531 
0.0135036 0.0133544 0.0133615 0.0364685 0.0366656 
0.0228464 0.0274905 0.0372549 0.0363487 0.0327417 
0.0127553 0.0325643 0.0180184 0.0177933 0.0339523 
0.0318517 0.0170449 0.0179754 0.030792 0.0332087 
0.0195711 0.0181048 0.0320417 0.0316947 0.0164669 
0.0181104 0.0313771 0.0180654 0.0173838 0.0319544 
0.0321959 0.0248135 0.0206575 0.0253095 0.0174691 
0.029892 0.0221651 0.0214055 0.0273201 0.0228112 
0.0263727 0.0271974 0.0269534 0.0226528 0.0227146 
0.0276684 0.0225027 0.0274642 0.0228787 0.0284579 
0.027379 0.0227541 0.0541483 0.054455 0.0544357 
0.0544198 0.0543809 0.0543673 0.0543567 0.0543501 
0.0543497 0.0543572 0.0543884 0.0544802 0.0546144 
0.0542672 0.0534098 0.133037 0.122575 0.112549 
0.102561 0.0925489 0.0826102 0.0726712 0.0625365 
0.057671 0.135875 0.135809 0.135651 0.135618 
0.135581 0.135408 0.135325 0.0568516 0.0673419 
0.07744 0.0874743 0.0975143 0.107513 0.117415 
0.126932 0.131627 0.107566 0.127754 0.11752 
0.0975524 0.0875651 0.077664 0.0676187 0.135623 
0.135945 0.135709 0.135614 0.135497 0.13535 
0.135691 0.0621381 0.0724076 0.0824555 0.0924955 
0.102523 0.11248 0.122242 0.0900736 0.0588264 
0.0589122 0.058766 0.0587489 0.0587265 0.0587067 
0.058704 0.0587099 0.0587266 0.0587989 0.0590518 
0.0596068 0.125008 0.095086 0.105152 0.130493 
0.131338 0.0802277 0.115121 0.0704073 0.130889 
0.131483 0.0851154 0.131225 0.131239 0.13172 
0.131219 0.119963 0.0591113 0.13068 0.0698001 
0.110174 0.0798781 0.0899655 0.100058 0.110037 
0.119878 0.075371 0.132083 0.100117 0.131105 
0.0652927 0.131244 0.130709 0.0647365 0.0849132 
0.0748443 0.0950184 0.105071 0.114964 0.124499 
0.128582 0.122093 0.0630798 0.0631493 0.063128 
0.0630706 0.0630644 0.0630797 0.0630909 0.0630964 
0.063189 0.0637306 0.092579 0.11746 0.127108 
0.112589 0.126825 0.112912 0.107676 0.082599 
0.0722022 0.126137 0.068421 0.127289 0.126817 
0.117795 0.125898 0.126773 0.0822879 0.102721 
0.0924919 0.102661 0.0672228 0.126001 0.126534 
0.0976452 0.126867 0.0731853 0.126866 0.122837 
0.0875439 0.107828 0.0638334 0.0772251 0.0627122 
0.0873865 0.0975919 0.12775 0.077822 0.0676322 
0.0674369 0.0674204 0.0674561 0.0675016 0.0675031 
0.0674343 0.0674297 0.122561 0.0798409 0.0951369 
0.0795371 0.100256 0.0899086 0.110402 0.123089 
0.0848519 0.110663 0.0847166 0.119458 0.122296 
0.100234 0.105388 0.121375 0.0744351 0.0694379 
0.120161 0.0950916 0.122245 0.0711932 0.122508 
0.105386 0.0670457 0.115171 0.0752135 0.0900238 
0.116093 0.122451 0.0675702 0.12169 0.0714485 
0.0717484 0.0718188 0.0719091 0.0719968 0.0719489 
0.0716316 0.11751 0.11764 0.122459 0.118168 
0.118519 0.0762931 0.081625 0.0874389 0.0727114 
0.0764926 0.103046 0.113636 0.0976908 0.0926443 
0.113589 0.118124 0.117926 0.118338 0.108093 
0.0717609 0.0925864 0.102799 0.0818851 0.116227 
0.0977945 0.108374 0.087233 0.113929 0.111975 
0.076274 0.0764027 0.0760328 0.0808963 0.085436 
0.0786805 0.110714 0.113032 0.105925 0.113883 
0.11336 0.0766009 0.0761753 0.0953988 0.105258 
0.0758316 0.0903531 0.0901648 0.0951475 0.100543 
0.080513 0.0843652 0.107497 0.100095 0.107818 
0.0806835 0.080691 0.0848378 0.0801522 0.0972823 
0.102259 0.103115 0.110372 0.0983553 0.109151 
0.0884917 0.0930728 0.108961 0.0926068 0.0846292 
0.102984 0.0991606 0.0852298 0.105928 0.104124 
0.0883402 0.0893293 0.0852837 0.0941408 0.095928 
0.0897224 0.0960789 0.100817 0.0906909 
2.27374e-15 0.08 2.27374e-15 0.08 
2.27374e-15 0.08 0.075 0.07 0.065 
0.06 0.055 0.05 0.045 0.04 
0.035 0.03 0.025 0.02 0.015 
0.01 0.005 0.08 0.08 0.08 
0.08 0.08 0.08 0.08 0.08 
0.08 0.005 0.01 0.015 0.02 
0.025 0.03 0.035 0.04 0.045 
0.05 0.055 0.06 0.065 0.07 
0.075 2.27374e-15 2.27374e-15 2.27374e-15 2.27374e-15 
2.27374e-15 2.27374e-15 2.27374e-15 2.27374e-15 2.27374e-15 
0.08 0.08 0.08 0.08 0.08 
0.08 0.08 0.08 0.08 0.08 
0.08 0.08 0.08 0.08 0.08 
0.08 0.08 0.005 0.01 0.015 
0.02 0.025 0.03 0.035 0.04 
0.045 0.05 0.055 0.06 0.065 
0.07 0.075 2.27374e-15 2.27374e-15 2.27374e-15 
2.27374e-15 2.27374e-15 2.27374e-15 2.27374e-15 2.27374e-15 
2.27374e-15 2.27374e-15 2.27374e-15 2.27374e-15 2.27374e-15 
2.27374e-15 2.27374e-15 2.27374e-15 2.27374e-15 0.073068 
0.062485 0.0523731 0.0423956 0.032436 0.0224571 
0.0125876 0.0756118 0.0757056 0.0757568 0.075538 
0.00684692 0.0173529 0.0274681 0.0375397 0.0475266 
0.0574429 0.0673489 0.00434621 0.00436078 0.00444677 
0.00441371 0.067734 0.0573827 0.0473831 0.0374179 
0.0274564 0.0174907 0.00815984 0.0757731 0.0754943 
0.0756791 0.0757735 0.0121385 0.0224228 0.0325115 
0.0425436 0.052485 0.0624263 0.0717924 0.00446898 
0.00440969 0.00441113 0.00413566 0.0649219 0.0248951 
0.0397887 0.0547189 0.0298803 0.0714979 0.0198878 
0.0706789 0.00932699 0.0350954 0.0348322 0.0715723 
0.0715259 0.0713502 0.0705048 0.00907334 0.0597108 
0.0712739 0.0300115 0.0451252 0.0549555 0.0649064 
0.00861035 0.0088934 0.00869946 0.0447738 0.0149144 
0.0249305 0.0497446 0.0198043 0.0500681 0.0147265 
0.0401403 0.0598519 0.00872775 0.00892442 0.0673498 
0.0620638 0.0675375 0.0569997 0.0371363 0.0274877 
0.0618099 0.0428263 0.0273463 0.0172202 0.0135816 
0.0131838 0.0526509 0.0574045 0.012934 0.0171093 
0.0224977 0.0668898 0.0471062 0.0521022 0.0222027 
0.0421173 0.0667477 0.0322049 0.0377877 0.0477772 
0.0672032 0.0672967 0.0125873 0.0326886 0.0133913 
0.0126127 0.0553815 0.0545468 0.029505 0.0639314 
0.0355296 0.0206245 0.0343814 0.018902 0.0598939 
0.0171158 0.044375 0.045627 0.0303415 0.0636227 
0.0494517 0.0249563 0.0393434 0.0593812 0.0406116 
0.0505902 0.0179067 0.0628895 0.0627087 0.0248495 
0.0632608 0.0264799 0.0216868 0.0384827 0.0518159 
0.0229921 0.0333925 0.0282376 0.0364318 0.0414788 
0.0537051 0.0314226 0.0486292 0.0575983 0.0586286 
0.0435586 0.0465816 0.0081473 0.0125732 0.0174806 
0.0224555 0.0274608 0.0324548 0.0374453 0.0424316 
0.0474106 0.052388 0.0573832 0.0624262 0.0675113 
0.0723628 0.0766016 0.0755929 0.0758181 0.0757479 
0.0756651 0.0756727 0.075762 0.0759084 0.0755402 
0.0757835 0.00706306 0.0174327 0.0274061 0.0373642 
0.0473437 0.0573189 0.067246 0.00433442 0.0043048 
0.0043728 0.00443378 0.00442976 0.00441256 0.00437765 
0.00413416 0.00477061 0.0756854 0.075533 0.0758591 
0.0756662 0.0756956 0.0758628 0.0757848 0.0323886 
0.0124082 0.0224161 0.0423477 0.0523318 0.0623034 
0.0717394 0.00443722 0.00432756 0.00441469 0.00443529 
0.00442723 0.00439014 0.0043028 0.0713464 0.0148837 
0.0198814 0.024943 0.0299255 0.0349034 0.0398819 
0.0448425 0.0497813 0.0547125 0.0596866 0.0648307 
0.0705576 0.0715175 0.0713392 0.0713332 0.0704117 
0.0248006 0.0715865 0.071576 0.07185 0.0546145 
0.0197955 0.0714056 0.0446616 0.0397023 0.0148649 
0.034719 0.0718737 0.00929294 0.0646831 0.00859322 
0.0713937 0.0087979 0.00887377 0.00885766 0.00881748 
0.00881046 0.0718415 0.00996794 0.071332 0.049632 
0.0713897 0.0297634 0.0595844 0.00854071 0.00886314 
0.00869224 0.00886515 0.00885463 0.00875821 0.00857761 
0.00796572 0.0682611 0.0225184 0.0274222 0.032357 
0.0373388 0.0422931 0.0472065 0.0520683 0.0568856 
0.0617147 0.0666581 0.0670182 0.0130232 0.0220927 
0.0131941 0.0468895 0.0671421 0.0133069 0.0671176 
0.0129276 0.0666708 0.0677945 0.017043 0.0370156 
0.0675355 0.0616886 0.0320345 0.0132986 0.0669974 
0.0133201 0.0133118 0.0128162 0.0567737 0.0518293 
0.0670219 0.0270931 0.0680608 0.0419698 0.0136707 
0.0669935 0.0670135 0.0171757 0.0131492 0.0125506 
0.0133396 0.0133028 0.0122023 0.0675304 0.0297541 
0.0347961 0.0397496 0.0446635 0.0495121 0.054255 
0.0588564 0.0633492 0.0242852 0.0628512 0.0627499 
0.0177389 0.0177718 0.0178363 0.0178074 0.0193199 
0.0625335 0.0627142 0.017857 0.0169456 0.0342793 
0.0627075 0.0626619 0.0639943 0.0174223 0.0169668 
0.0588243 0.017757 0.0292436 0.0647308 0.0441502 
0.0178329 0.0205976 0.0174859 0.0637711 0.0626877 
0.0629668 0.0392592 0.0249284 0.0537802 0.0215497 
0.0372264 0.0421197 0.0469915 0.0518164 0.0564555 
0.0608207 0.0313785 0.0261956 0.0489322 0.0415281 
0.0212899 0.0591826 0.0575479 0.0583134 0.0267029 
0.0221204 0.0222809 0.0584853 0.0584741 0.0585421 
0.022342 0.0463155 0.0365078 0.0505833 0.058324 
0.0322538 0.0222691 0.0583706 0.0224499 0.0543419 
0.0222023 0.0225196 0.0224769 0.0438969 0.0279031 
0.0444054 0.0493648 0.0347264 0.051807 0.053786 
0.0266568 0.053924 0.0338465 0.0268774 0.0389079 
0.0491998 0.0543431 0.0395204 0.0267594 0.0540075 
0.030308 0.054476 0.0267536 0.0543147 0.0266024 
0.0366857 0.0276973 0.0496161 0.0541357 0.0319603 
0.0466526 0.0416697 0.0488137 0.0316057 0.0499438 
0.0497438 0.0305903 0.0411969 0.0314235 0.0452492 
0.0507574 0.0313837 0.0369063 0.0502615 0.0336304 
0.035689 0.0455313 0.0438632 0.0408287 0.0452902 
0.0309644 0.0465264 0.0387841 0.045836 0.0366194 
0.0355994 0.0417534 0.0407401 0.0411759 
9.6451e-05 8.6687e-05 8.47706e-05 8.51875e-05 
8.54886e-05 8.53602e-05 8.53628e-05 8.43826e-05 8.61701e-05 
0.000118999 0.000124107 0.000126528 0.000126467 0.000125224 
0.00011187 0.000123214 0.000125973 0.00012611 0.000127641 
0.000127727 0.000127508 0.000125185 0.000132641 0.000123277 
0.000124028 0.00012353 0.000124087 0.000112982 0.000105087 
0.000121258 0.000109278 8.60862e-05 0.000109028 8.49672e-05 
8.54102e-05 8.54569e-05 8.52701e-05 8.47863e-05 0.000109988 
8.33965e-05 0.000122956 0.000126694 0.000123424 0.000125416 
0.000124401 0.00012232 0.000126196 0.000110647 0.000118856 
0.000124009 0.000125962 0.000127347 0.000127829 0.000126762 
0.000126846 0.000126382 0.000125432 0.000123716 0.000123625 
0.000128122 0.000110145 0.00012579 0.000110082 0.00010993 
0.000110025 0.00010979 0.000105836 0.000122009 0.000121122 
0.000119684 0.000119932 0.00012009 0.000120597 0.000122099 
0.000124048 0.000123835 0.000120774 0.000107329 0.000120005 
0.000119967 0.000120544 0.000120324 0.000122349 0.000124279 
0.000123928 0.000109994 0.000110292 0.000120987 0.00012109 
0.000121992 0.000121649 0.000122001 0.000117489 0.000126265 
0.000113059 0.000112413 0.000112527 0.000125317 0.000113139 
0.000127528 0.000130192 0.000128247 0.000112842 0.000131581 
0.000108109 0.000125629 0.000125239 0.000122377 0.000122986 
0.000125372 0.000123886 0.000124468 0.000128878 0.000123699 
0.000111242 0.000131917 0.000108599 0.000127377 0.000116977 
0.000127805 0.000119748 0.000128506 0.00012701 0.000128808 
0.00012438 0.000131294 0.000141577 0.0001238 0.000123301 
0.000113057 0.000131518 0.000116066 0.000132447 0.000112101 
0.00013246 0.000112995 0.00013134 0.000126657 0.000121014 
0.000121827 0.000127266 0.000135347 0.000113845 0.000133457 
0.000121508 0.000121934 0.000121513 0.000131511 0.000119467 
0.000131714 0.000131382 0.000133262 0.000123273 0.000119897 
0.000128325 0.000128234 0.000128378 0.000120215 0.000119417 
0.000127926 0.000118214 0.000119072 0.000123828 0.000128262 
0.000117102 0.000131359 0.000123867 0.000121079 0.000124469 
0.0001249 0.000119651 0.000125087 0.000119955 0.000119718 
0.000120249 0.000122979 0.00012422 0.000129927 0.000126736 
0.000115355 0.000116242 0.000127701 0.000114517 0.000130399 
0.000128751 0.000115196 0.000118891 0.00012366 0.000123593 
0.000126538 0.000128729 0.000129075 0.000121676 0.000123088 
0.000125694 0.000127478 0.000113668 0.000133062 0.000130184 
0.000123257 0.000127527 0.000116413 0.000116316 0.000131867 
0.000125301 0.000119094 0.000116238 0.000131919 0.000118094 
0.000123314 0.000128796 0.000115955 0.000131598 0.000128888 
0.000119164 0.000128799 0.000119624 0.00012414 0.000124541 
0.000125378 0.000119301 0.000125656 0.000122375 0.000120957 
0.000131762 0.000131742 0.000121791 0.000120008 0.000131301 
0.000137849 0.000128536 0.000122551 0.000120339 0.000124476 
0.000118152 0.000126464 0.000123432 0.000132129 0.000124336 
0.000116069 0.00011928 0.000119165 0.000130241 0.00011787 
0.000123307 0.000129488 0.000117783 0.000129947 0.00011665 
0.000134957 0.000127026 0.000129619 0.000114709 0.000116931 
0.000131359 0.000114198 0.000129819 0.000118882 0.000122228 
0.000123993 0.000116777 0.000129292 0.000129613 0.000118375 
0.000123716 0.00011185 0.000116956 0.000131988 0.000123427 
0.000127822 0.000118434 0.000116836 0.000131387 0.000115404 
0.000128457 0.00013187 0.000129596 0.000118351 0.000129277 
0.000118033 0.000120649 0.000127725 0.000123207 0.000123988 
0.000132837 0.000124995 0.000124833 0.000118351 0.00011947 
0.000126403 0.000118734 0.000120839 0.000118517 0.000115062 
0.000122366 0.000125988 0.000132297 0.000131642 0.000129835 
0.000118086 0.000118965 0.000119409 0.000121744 0.000132769 
0.000129135 0.000123837 0.000130486 0.000119485 0.00012604 
0.000129224 0.000131704 0.000131682 0.000117396 0.000132324 
0.000118843 0.000116905 0.000118394 0.000117456 0.000130288 
0.000126724 0.000119735 0.000128565 0.000129376 0.000117218 
0.000126541 0.000124974 0.000126876 0.000124459 0.000116956 
0.000117792 0.000129799 0.000129516 0.000129751 0.000125929 
0.00011708 0.000131152 0.000116843 0.000132647 0.000116913 
0.000117221 0.000130551 0.000123076 0.000129048 0.000130762 
0.000121419 0.000130241 0.000131297 0.000116238 0.000117039 
0.000119598 0.000117718 0.000125152 0.000128797 0.000116459 
0.000127504 0.000120239 0.000136997 0.00011582 0.00011594 
0.000125972 0.000120484 0.000130378 0.000117107 0.000129512 
0.00011695 0.000133826 0.000115274 0.000134001 0.000115217 
0.000133205 0.000115202 0.000133211 0.000115202 0.000133154 
0.000116694 0.00013299 0.000116978 0.000133678 0.000117464 
0.000133744 0.000118272 0.000133927 0.00011511 0.000132645 
0.000112477 0.000117641 0.000129634 0.000119419 0.000124483 
0.000126761 0.000126649 0.000126621 0.000126677 0.000126317 
0.000126067 0.000126449 0.000125823 0.00012449 0.000132751 
0.000111751 0.000125291 0.000128617 0.000129762 0.000128036 
0.00012767 0.000127012 0.000125899 0.000119532 0.00012635 
0.000124113 0.000123777 0.00012355 0.000123318 0.000123314 
0.000123847 0.000126873 0.000129006 0.000125866 0.000137853 
0.000132349 0.000121938 0.000126577 0.000123597 0.000125692 
0.000124726 0.000126917 0.000122233 0.000126675 0.000126563 
0.000126059 0.000126366 0.000115769 0.000132132 0.000122643 
0.000128198 0.000128312 0.000121465 0.000127848 0.000127324 
0.00012686 0.000126968 0.000125442 0.000123952 0.000123673 
0.000123421 0.000123268 0.000123501 0.0001247 0.000120914 
0.00011369 0.000122346 0.00012253 0.000123395 0.000121888 
0.00012065 0.000121379 0.000121633 0.000122181 0.000122958 
0.000123581 0.000124096 0.000123977 0.000124082 0.000123884 
0.000122977 0.000123099 0.000121917 0.000122564 0.000121997 
0.000123995 0.000124016 0.000124006 0.000124008 0.000123789 
0.000121404 0.000119188 0.000122964 0.000121559 0.000122371 
0.000120913 0.000120166 0.000121426 0.000122254 0.0001202 
0.000125253 0.000118308 0.000115985 0.000133526 0.000115168 
0.000133834 0.000115278 0.000133233 0.000115115 0.000132833 
0.000115042 0.000132889 0.000115064 0.000132774 0.000115087 
0.00013256 0.000115163 0.000132375 0.000115224 0.000132525 
0.000119485 0.00013323 0.000121018 0.000131753 0.00012674 
0.0001254 0.00012532 0.000122827 0.000125193 0.000124893 
0.000130353 0.000128585 0.000124408 0.000125562 0.000125103 
0.000125955 0.000127183 0.000120745 0.000124892 0.000124223 
0.000126978 0.00012692 0.000121452 0.000128414 0.000120731 
0.000126834 0.000121306 0.000125939 0.000120714 0.000124258 
0.000125659 0.000124175 0.000132204 0.000125244 0.000122684 
0.000134411 0.000124179 0.000124107 0.000123856 0.000123924 
0.000124161 0.000124273 0.000123766 0.000134394 0.000117744 
0.000120563 0.000125238 0.000122898 0.000131601 0.000126514 
0.000121837 0.000113279 0.000123192 0.000132354 0.000124638 
0.000120608 0.000127163 0.000132208 0.000122955 0.000121904 
0.000115561 0.000130446 0.000119805 0.000121545 0.000121652 
0.00011703 0.000125993 0.00012515 0.000125466 0.000124502 
0.000124258 0.000124189 0.000124216 0.000124016 0.000124361 
0.00012399 0.000123862 0.000123969 0.000122294 0.000125024 
0.000124029 0.000117233 0.000137819 0.000122405 0.000123834 
0.000124256 0.00012403 0.000116803 0.000124521 0.000124342 
0.000121596 0.000117992 0.000124428 0.000124055 0.000124152 
0.000127091 0.000119774 0.000119268 0.000125386 0.000115231 
0.00012847 0.000115031 0.000132863 0.000115118 0.000132736 
0.000115274 0.000132409 0.000115333 0.000131908 0.000115606 
0.000131184 0.000116585 0.000130192 0.000119561 0.000123201 
0.000128484 0.000125561 0.00012354 0.000126784 0.00012387 
0.000123258 0.000126801 0.000125234 0.000123693 0.000123804 
0.000124687 0.000124213 0.000128193 0.000129002 0.000132691 
0.000124564 0.000118193 0.00012598 0.000120847 0.0001266 
0.000125623 0.000116408 0.000121097 0.000125192 0.000123836 
0.000126134 0.000121549 0.000124243 0.000125178 0.000124076 
0.000123628 0.000124465 0.000123369 0.00012475 0.000124816 
0.000124107 0.000126087 0.000122126 0.00012265 0.000125371 
0.000122682 0.000125586 0.00012171 0.000123878 0.000122976 
0.000126693 0.000121931 0.000121282 0.000129273 0.000123212 
0.000125373 0.000122364 0.000123065 0.000122744 0.000125114 
0.000121698 0.000119425 0.000124146 0.000118527 0.000124001 
0.000124234 0.000123084 0.000123856 0.000133291 0.000123834 
0.000128132 0.000122291 0.00012141 0.000115943 0.000123913 
0.000124078 0.000124975 0.000124712 0.000123227 0.000129365 
0.000124503 0.000125572 0.000124427 0.000127672 0.000116419 
0.000115929 0.000114883 0.00013318 0.000115088 0.00013272 
0.000115442 0.000132457 0.000115822 0.00013191 0.000116034 
0.000130969 0.00011724 0.000129235 0.000117374 0.00012472 
0.000126638 0.000125839 0.000124761 0.000126443 0.000125601 
0.000124294 0.000123438 0.000124255 0.000123513 0.000120478 
0.000127164 0.000121528 0.000125691 0.000123399 0.00012498 
0.000124413 0.000124078 0.000123628 0.000125376 0.000125834 
0.000125246 0.000123059 0.000125152 0.00012328 0.000123333 
0.000125437 0.000124486 0.000124181 0.000125001 0.000121317 
0.000124591 0.0001257 0.000119085 0.000119661 0.000123864 
0.000123609 0.000124496 0.000124887 0.000121873 0.000123637 
0.000114754 0.000126644 0.00012317 0.000124807 0.000114784 
0.000122834 0.000124117 0.00012827 0.000124596 0.000118748 
0.000126109 0.000122337 0.000119246 0.000125082 0.000120295 
0.000124402 0.000123554 0.000123583 0.000133107 0.000126466 
0.000119839 0.000128946 0.000124645 0.000123093 0.000122144 
0.00012182 0.000120938 0.000122179 0.000122248 0.000129587 
0.000114832 0.000115426 0.000132385 0.000116011 0.000132139 
0.000116772 0.000132299 0.000117068 0.00013057 0.000117018 
0.000125286 0.000129465 0.000124176 0.000121304 0.000123466 
0.000122914 0.000127162 0.00012877 0.000126487 0.000123207 
0.000139358 0.000126711 0.000126035 0.000129662 0.000127334 
0.000127979 0.000116245 0.000123749 0.000123942 0.00012901 
0.000124477 0.000119545 0.000122837 0.000126043 0.000125704 
0.000123258 0.000125333 0.000125897 0.000123238 0.00012098 
0.000122538 0.000123445 0.000132859 0.000125838 0.000116289 
0.000133592 0.000126055 0.000115839 0.000133555 0.000121571 
0.000125931 0.000126003 0.000121206 0.00012561 0.000113843 
0.000122922 0.000123909 0.000125408 0.000123366 0.00012438 
0.000124688 0.000120805 0.00012873 0.000131132 0.000123416 
0.000125174 0.000122432 0.0001218 0.000120271 0.000126691 
0.000124465 0.000122742 0.000122813 0.00013471 0.000133391 
0.00012518 0.000125337 0.000126144 0.000116127 0.000115932 
0.000120464 0.000132196 0.000120353 0.0001187 0.000127495 
0.000123227 0.000122428 0.000124268 0.000117487 0.000124093 
0.000124744 0.000119249 0.000127093 0.000124939 0.000122245 
0.000128491 0.000119987 0.000121514 0.000124877 0.000117976 
0.000117875 0.000119763 0.000135215 0.000117243 0.000124964 
0.00011552 0.000123472 0.000126294 0.000131848 0.000114498 
0.000132283 0.000121418 0.00012275 0.000123534 0.000119525 
0.000120281 0.000125062 0.000120008 0.000127383 0.000123522 
0.000125158 0.000125088 0.000124596 0.000123075 0.000126362 
0.00012872 0.000127505 0.000118314 0.000116822 0.000128546 
0.000127768 0.000123627 0.000132114 0.000124832 0.000124918 
0.000115638 0.00011704 0.000132296 0.000131054 0.000130065 
0.000123835 0.000110488 0.000125653 0.000133152 0.000127182 
0.000125399 0.000127619 0.000122907 0.000125988 0.000126831 
0.000122463 0.000129078 0.000134355 0.000132729 0.000121719 
0.000118056 0.000136418 0.000124178 0.00011406 0.000123356 
0.000123559 0.000119057 0.000124471 0.000126525 0.000130563 
0.000124817 0.000110429 0.000122232 0.000125718 0.00011888 
0.000131947 0.000125041 0.000124301 0.000129477 0.000117174 
0.000126281 0.000120677 0.000122578 0.000118748 0.000132642 
0.000127555 0.000131465 0.00011689 0.000124066 0.000114677 
0.000114142 0.000128189 0.000117856 0.000128195 0.00011449 
0.000133262 0.000117409 0.000118864 0.000121305 0.000127605 
0.000123163 0.00011471 0.00012134 0.000121466 0.000131732 
0.00011993 0.000124033 0.000130095 0.00012493 0.000128371 
0.00012205 0.000127375 0.000127557 0.000121383 0.000127133 
0.00013274 0.000134836 0.000125978 0.000121322 0.000120094 
0.000118607 0.000123523 0.000113561 0.000128635 0.000128447 
0.000124714 0.000126771 
863.105 1035.61 1037.05 1036.01 
1036.32 1035.87 1035.76 1035.37 1042.83 
937.144 922.107 919.501 917.938 922.915 
1095.55 1099.11 1099.3 1099.72 1100.14 
1100.14 1100.02 1099.49 1069.04 1096.68 
1098.19 1098.15 1098.2 1065.99 1081.88 
1098.17 1084.86 1038.38 1085 1035.56 
1036.28 1036.13 1035.61 1037.76 1085.64 
1034.47 1063.42 917.471 1065.32 925.264 
1064.78 1062.93 920.128 1085.7 916.655 
1099.4 1099.7 1100.09 1100.16 1099.83 
1099.89 1100.14 1098.48 1098.16 1098.13 
1098.46 1085.64 1061.18 1085.71 1085.66 
1085.61 1085.68 1083.53 1063.29 1097.27 
1096.83 1096.86 1097.02 1097.2 1097.47 
1098.33 1098.31 1097.86 1084.99 1096.87 
1096.88 1097.13 1097.17 1098.03 1098.38 
1098.33 1085.7 1085.74 1097.18 1097.4 
1063.89 1097.64 1097.84 1094.24 1099.25 
1093.45 1093.27 1093.31 1097.9 1093.43 
1098.14 1097.01 1099.73 1093.39 1100.26 
1088.86 1097.86 1097.85 1098 1098.12 
1097.72 1098.27 1098.5 1099.15 1098.41 
1092.93 1100.27 1081.48 1098.45 1096.66 
1099.67 1096.81 1099.76 1099.3 1099.75 
1098.24 1098.6 1101.48 1098.28 1098.15 
1093.45 1100.24 1093.52 1099.78 1093.19 
1100.47 1093.43 1100.2 1099.29 1097.19 
1097.32 1097.89 1099.14 1096.14 1100.32 
1097.77 1098.31 1095.25 1100.22 1096.78 
1100.3 1100.22 1100.29 1098.29 1096.82 
1099.65 1099.52 1099.75 1097.01 1097.18 
1099.48 1097.24 1097.62 1098.25 1098.93 
1096.3 1099.65 1098.34 1097.24 1098.43 
1098.51 1096.76 1098.54 1097.05 1096.77 
1097.1 1098.17 1098.42 1099.89 1098.81 
1095.54 1095.73 1099.65 1095.69 1100.34 
1099.83 1095.47 1096.13 1098.32 1098.18 
1098.78 1099.74 1099.76 1097.37 1098.12 
1098.68 1099.36 1095.1 1100.04 1100.24 
1097.95 1098.64 1095.76 1095.74 1100.56 
1099.03 1096.74 1095.73 1100.56 1096.86 
1098.48 1099.79 1095.66 1100.51 1099.86 
1096.59 1099.82 1096.68 1098.36 1098.59 
1098.44 1096.59 1098.84 1097.89 1097.42 
1100.54 1100.53 1097.37 1097.45 1100.43 
1101.3 1099.79 1097.21 1096.89 1098.51 
1096.91 1098.22 1098.25 1100.15 1098.24 
1097 1096.69 1096.61 1099.66 1097.39 
1098.58 1099.91 1096.06 1099.51 1095.85 
1100.56 1098.51 1100.02 1096.73 1095.92 
1100.24 1095.9 1099.78 1096.34 1097.33 
1098.07 1095.88 1099.98 1099.99 1096.36 
1097.88 1095.3 1095.91 1100.55 1099.09 
1099.69 1096.47 1095.9 1100.35 1095.48 
1098.85 1099.95 1100.02 1096.28 1099.95 
1096.1 1098.08 1099.05 1098.07 1098.43 
1099.73 1098.81 1098.36 1096.3 1097.59 
1099.14 1096.63 1097.77 1096.85 1096.54 
1098.58 1099.01 1100.36 1100.45 1099.24 
1096.17 1097.18 1096.97 1097.21 1100.19 
1098.89 1097.99 1100.25 1096.59 1098.22 
1099.57 1100.29 1100.42 1095.94 1100.52 
1096.39 1095.78 1096.37 1096.11 1100.32 
1099.65 1096.73 1099.82 1100.1 1095.94 
1098.51 1099.07 1099.26 1099.23 1096.09 
1096.63 1099.87 1100.17 1100.14 1099.37 
1095.99 1100.32 1095.83 1100.92 1095.82 
1096.6 1099.23 1097.59 1100.07 1100.43 
1098.67 1100.42 1100.67 1095.74 1095.84 
1096.62 1096.27 1097.84 1099.84 1095.63 
1099.83 1097.07 1100.63 1096.28 1095.77 
1098.57 1096.93 1100.46 1095.93 1100.25 
1095.89 1101.03 1095.48 1101.06 1095.47 
1100.85 1095.47 1100.85 1095.48 1100.83 
1095.83 1100.8 1095.91 1100.98 1096 
1100.99 1096.16 1100.6 1095.56 1100.7 
1052.07 885.287 1098.46 937.765 922.673 
916.251 918.241 920.655 920.405 917.593 
913.403 923.761 915.431 1063.13 1054.01 
1095.37 1098.19 1098.75 1098.76 1098.68 
1098.62 1098.51 1098.27 1097.75 1098.48 
1098.24 1098.21 1098.17 1098.13 1098.13 
1098.21 1098.56 1098.81 1098.63 1100.87 
1069.36 1063.42 920.063 1065.29 924.179 
1064.1 914.999 1063.8 920.629 919.643 
914.589 917.377 1095.58 1099.4 1062.68 
1098.66 1098.7 1097.23 1098.64 1098.56 
1098.49 1098.72 1098.52 1098.23 1098.19 
1098.15 1098.12 1098.15 1098.34 1064.32 
1096.48 1063.89 1063.64 1062.23 1062.5 
1097.1 1097.24 1097.29 1097.36 1097.51 
1098.27 1098.37 1098.35 1098.36 1098.33 
1098.2 1061.74 1097.32 1097.42 1097.99 
1098.35 1098.36 1098.35 1098.35 1098.32 
1097.93 1097.11 1063.09 1062.75 1063.85 
1097.08 1097.06 1097.26 1098.01 1097.13 
1097.89 1096.27 1095.64 1100.85 1095.49 
1100.27 1095.53 1100.34 1095.48 1100.77 
1095.46 1100.79 1095.47 1100.76 1095.48 
1100.72 1095.52 1100.67 1095.55 1100.62 
1096.75 1100.79 1096.72 1099.93 1096.38 
1097.56 1097.94 1098.06 1097.94 1098.58 
1099.44 1099.35 1097.52 1098.04 1097.85 
1099.16 1099.34 1097.25 1097.74 1098.34 
1099.32 1099.31 1097.38 1099.51 1097.23 
1099.31 1097.35 1097.82 1097.68 1098.58 
1099.1 1098.31 1098.79 1097.98 1098.03 
1100.32 1098.33 1098.32 1098.28 1098.3 
1098.37 1097.45 1098.25 1100.46 1096.34 
1097.12 1097.93 1098.08 1099.16 1099.25 
1097.46 1095.98 1098.14 1099.51 1098.41 
1097.59 1098.68 1099.94 1098.09 1097.89 
1095.66 1100.61 1097.79 1097.37 1097.43 
1096.23 1098.29 1098.53 1099.06 1098.27 
1098.4 1098.34 1098.32 1098.35 1098.42 
1098.3 1098.29 1098.28 1097.52 1098.54 
1097.76 1097.44 1101.5 1098.1 1098.32 
1098.39 1098.35 1096.65 1098.42 1098.41 
1097.38 1097.19 1098.44 1098.36 1098.37 
1098.59 1097.08 1096.76 1099.19 1095.51 
1100.02 1095.45 1100.79 1095.47 1100.76 
1095.51 1100.7 1095.54 1100.6 1095.69 
1100.46 1096.18 1100.1 1097.11 1098.64 
1099.63 1098.79 1098.13 1099.28 1098.31 
1098.22 1099.28 1098.82 1098.27 1098.31 
1098.6 1098.3 1098.79 1100.08 1100.03 
1098.6 1096.84 1099.09 1097.35 1099.25 
1098.99 1096.73 1097.58 1099 1097.89 
1099.17 1097.41 1098.35 1098.72 1098.32 
1098.24 1098.42 1098.18 1098.51 1098.94 
1097.87 1099.16 1097.56 1097.65 1098.75 
1097.9 1099.73 1097.44 1098.29 1097.87 
1099.27 1097.5 1097.4 1099.11 1098.79 
1098.76 1097.84 1097.98 1097.89 1098.74 
1097.45 1096.47 1098.31 1096.99 1098.35 
1098.35 1097.97 1098.32 1100.37 1098.27 
1099.43 1097.27 1097.42 1096.85 1098.38 
1098.36 1098.55 1098.3 1098.04 1099.46 
1098.46 1098.51 1098.42 1098.91 1096.64 
1095.63 1095.42 1100.86 1095.46 1100.76 
1095.54 1100.71 1095.63 1100.62 1095.7 
1100.46 1096.2 1100.19 1096.54 1098.95 
1099.67 1099.07 1098.57 1098.75 1098.78 
1098.35 1098.2 1098.36 1098.28 1097.97 
1099.33 1097.5 1098.86 1098.1 1098.76 
1098.39 1098.37 1098.28 1097.96 1099.09 
1098.72 1097.98 1098.73 1097.99 1098.03 
1098.89 1097.91 1098.28 1098.56 1098.2 
1098.22 1098.67 1097.64 1096.98 1098.27 
1098.27 1098.43 1098.91 1097.5 1097.9 
1096.11 1099.21 1098.17 1098.47 1096.75 
1098.14 1098.36 1099.03 1098.42 1097.36 
1098.9 1097.62 1097.78 1098.53 1097.63 
1098.91 1097.98 1098.79 1099.84 1099.2 
1096.73 1099.69 1098.89 1097.85 1097.79 
1097.48 1097.54 1097.97 1097.53 1099.02 
1095.39 1095.54 1100.69 1095.66 1100.66 
1095.82 1100.17 1095.86 1100.44 1096 
1098.5 1099.42 1098.73 1097.42 1098.57 
1097.81 1099.32 1099.35 1099.08 1097.85 
1101.38 1098.62 1099.15 1099.24 1098.58 
1099.34 1096.44 1097.64 1097.51 1099.32 
1098.35 1096.98 1098.08 1099.42 1098.23 
1097.78 1098.71 1098.81 1098.02 1097.52 
1098.43 1097.95 1100.09 1098.79 1095.76 
1100.18 1099.12 1095.31 1100.19 1097.45 
1098.97 1098.62 1098.07 1098.84 1095.14 
1098.01 1098.28 1098.75 1098.05 1098.41 
1098.44 1098 1098.92 1099.55 1098.19 
1098.55 1098.13 1097.51 1097.42 1098.77 
1098.43 1098.09 1097.87 1100.4 1100.29 
1098.49 1098.64 1099.9 1096.23 1095.66 
1097.01 1100.89 1097.87 1096.72 1098.36 
1097.99 1098.88 1098.67 1096.7 1098.36 
1098.48 1097.51 1099.16 1098.85 1097.9 