
TITLE     = "DG2D to Tecplot"
VARIABLES = "X"
"Y"
"RHO"
"U"
"V"
"VELOCITY_MAG"
"P"
"T"
"THETA1"
"THETA2"
ZONE T="ZONE 1"
STRANDID=0
ZONETYPE=FEQuadrilateral
DATAPACKING=BLOCK
VARLOCATION=([3-10]=CELLCENTERED)
DT=(SINGLE SINGLE SINGLE SINGLE SINGLE SINGLE SINGLE SINGLE SINGLE SINGLE)

Nodes=1152, Elements=2176
0.02 0.4 -1.77463e-15 -1.06947e-14 
-1.07881e-14 -1.78819e-15 -0.02 -0.4 0.0228636 
0.0263654 0.0306476 0.0358839 0.0422872 0.0501175 
0.0596926 0.0714015 0.0857197 0.103229 0.124639 
0.150821 0.182838 0.221989 0.269865 0.328409 
0.0199037 0.0196157 0.0191388 0.0184776 0.0176384 
0.0166294 0.0154602 0.0141421 0.0126879 0.0111114 
0.00942793 0.00765367 0.00580569 0.00390181 0.00196034 
-2.2712e-15 -2.27081e-15 -2.27033e-15 -2.26975e-15 -2.26904e-15 
-2.26817e-15 -2.26711e-15 -2.26581e-15 -2.26422e-15 -2.26228e-15 
-2.2599e-15 -2.25699e-15 -2.25344e-15 -2.24909e-15 -2.24378e-15 
-2.23728e-15 0.398074 0.392314 0.382776 0.369552 
0.352769 0.332588 0.309204 0.282843 0.253757 
0.222228 0.188559 0.153073 0.116114 0.0780361 
0.0392069 0.0392069 0.0780361 0.116114 0.153073 
0.188559 0.222228 0.253757 0.282843 0.309204 
0.332588 0.352769 0.369552 0.382776 0.392314 
0.398074 -2.3102e-15 -2.3037e-15 -2.29838e-15 -2.29404e-15 
-2.29048e-15 -2.28757e-15 -2.2852e-15 -2.28325e-15 -2.28166e-15 
-2.28036e-15 -2.2793e-15 -2.27843e-15 -2.27772e-15 -2.27714e-15 
-2.27666e-15 -2.27628e-15 0.00196034 0.00390181 0.00580569 
0.00765367 0.00942793 0.0111114 0.0126879 0.0141421 
0.0154602 0.0166294 0.0176384 0.0184776 0.0191388 
0.0196157 0.0199037 -0.00196034 -0.00390181 -0.00580569 
-0.00765367 -0.00942793 -0.0111114 -0.0126879 -0.0141421 
-0.0154602 -0.0166294 -0.0176384 -0.0184776 -0.0191388 
-0.0196157 -0.0199037 -0.328409 -0.269865 -0.221989 
-0.182838 -0.150821 -0.124639 -0.103229 -0.0857197 
-0.0714015 -0.0596926 -0.0501175 -0.0422872 -0.0358839 
-0.0306476 -0.0263654 -0.0228636 -0.0392069 -0.0780361 
-0.116114 -0.153073 -0.188559 -0.222228 -0.253757 
-0.282843 -0.309204 -0.332588 -0.352769 -0.369552 
-0.382776 -0.392314 -0.398074 -0.398074 -0.392314 
-0.382776 -0.369552 -0.352769 -0.332588 -0.309204 
-0.282843 -0.253757 -0.222228 -0.188559 -0.153073 
-0.116114 -0.0780361 -0.0392069 -0.0199037 -0.0196157 
-0.0191388 -0.0184776 -0.0176384 -0.0166294 -0.0154602 
-0.0141421 -0.0126879 -0.0111114 -0.00942793 -0.00765367 
-0.00580569 -0.00390181 -0.00196034 0.0227535 0.0224243 
0.0218791 0.0211232 0.0201639 0.0190104 0.0176738 
0.016167 0.0145045 0.0127024 0.0107778 0.00874953 
0.00663696 0.00446047 0.00224103 0.0262385 0.0258588 
0.0252301 0.0243585 0.0232522 0.021922 0.0203807 
0.0186432 0.016726 0.0146478 0.0124286 0.0100896 
0.00765348 0.00514364 0.00258426 0.0305 0.0300587 
0.0293279 0.0283146 0.0270287 0.0254825 0.0236909 
0.0216711 0.0194426 0.0170269 0.0144472 0.0117283 
0.00889652 0.00597904 0.00300399 0.0357112 0.0351944 
0.0343388 0.0331524 0.0316468 0.0298364 0.0277387 
0.0253738 0.0227645 0.019936 0.0169156 0.0137322 
0.0104166 0.00700061 0.00351724 0.0420836 0.0414747 
0.0404664 0.0390683 0.037294 0.0351605 0.0326885 
0.0299016 0.0268267 0.0234935 0.0199341 0.0161826 
0.0122753 0.00824983 0.00414487 0.0498761 0.0491545 
0.0479594 0.0463025 0.0441996 0.0416711 0.0387413 
0.0354384 0.0317942 0.0278438 0.0236252 0.0191791 
0.0145483 0.00977743 0.00491237 0.0594052 0.0585456 
0.0571223 0.0551488 0.0526442 0.0496326 0.046143 
0.042209 0.0378686 0.0331634 0.0281389 0.0228434 
0.0173278 0.0116454 0.0058509 0.0710577 0.0700296 
0.068327 0.0659664 0.0629705 0.0593682 0.0551941 
0.0504885 0.0452966 0.0396686 0.0336584 0.0273242 
0.0207268 0.0139297 0.00699857 0.0853069 0.0840726 
0.0820286 0.0791947 0.075598 0.0712733 0.0662622 
0.060613 0.05438 0.0476233 0.040408 0.0328035 
0.0248831 0.0167231 0.008402 0.102732 0.101245 
0.0987836 0.0953708 0.0910395 0.0858315 0.0797968 
0.0729937 0.0654875 0.0573507 0.0486616 0.0395039 
0.0299657 0.0201389 0.0101182 0.124039 0.122244 
0.119272 0.115152 0.109922 0.103634 0.0963475 
0.0881333 0.0790703 0.0692459 0.0587546 0.0476974 
0.0361809 0.0243159 0.0122168 0.150095 0.147923 
0.144327 0.139341 0.133012 0.125403 0.116586 
0.106647 0.09568 0.0837918 0.0710966 0.0577168 
0.0437811 0.0294238 0.0147831 0.181957 0.179324 
0.174965 0.16892 0.161248 0.152024 0.141335 
0.129286 0.115991 0.101579 0.0861891 0.0699689 
0.053075 0.0356699 0.0179212 0.22092 0.217723 
0.21243 0.205091 0.195777 0.184577 0.1716 
0.15697 0.140828 0.12333 0.104645 0.0849514 
0.0644399 0.0433079 0.0217587 0.268565 0.264679 
0.258244 0.249322 0.237999 0.224384 0.208608 
0.190823 0.1712 0.149929 0.127213 0.103273 
0.0783375 0.052648 0.0264513 0.326828 0.322099 
0.314268 0.30341 0.289631 0.273062 0.253864 
0.23222 0.208341 0.182454 0.154811 0.125677 
0.0953321 0.0640694 0.0321897 0.0321897 0.0264513 
0.0217587 0.0179212 0.0147831 0.0122168 0.0101182 
0.008402 0.00699857 0.0058509 0.00491237 0.00414487 
0.00351724 0.00300399 0.00258426 0.00224103 0.0640694 
0.052648 0.0433079 0.0356699 0.0294238 0.0243159 
0.0201389 0.0167231 0.0139297 0.0116454 0.00977743 
0.00824983 0.00700061 0.00597904 0.00514364 0.00446047 
0.0953321 0.0783375 0.0644399 0.053075 0.0437811 
0.0361809 0.0299657 0.0248831 0.0207268 0.0173278 
0.0145483 0.0122753 0.0104166 0.00889652 0.00765348 
0.00663696 0.125677 0.103273 0.0849514 0.0699689 
0.0577168 0.0476974 0.0395039 0.0328035 0.0273242 
0.0228434 0.0191791 0.0161826 0.0137322 0.0117283 
0.0100896 0.00874953 0.154811 0.127213 0.104645 
0.0861891 0.0710966 0.0587546 0.0486616 0.040408 
0.0336584 0.0281389 0.0236252 0.0199341 0.0169156 
0.0144472 0.0124286 0.0107778 0.182454 0.149929 
0.12333 0.101579 0.0837918 0.0692459 0.0573507 
0.0476233 0.0396686 0.0331634 0.0278438 0.0234935 
0.019936 0.0170269 0.0146478 0.0127024 0.208341 
0.1712 0.140828 0.115991 0.09568 0.0790703 
0.0654875 0.05438 0.0452966 0.0378686 0.0317942 
0.0268267 0.0227645 0.0194426 0.016726 0.0145045 
0.23222 0.190823 0.15697 0.129286 0.106647 
0.0881333 0.0729937 0.060613 0.0504885 0.042209 
0.0354384 0.0299016 0.0253738 0.0216711 0.0186432 
0.016167 0.253864 0.208608 0.1716 0.141335 
0.116586 0.0963475 0.0797968 0.0662622 0.0551941 
0.046143 0.0387413 0.0326885 0.0277387 0.0236909 
0.0203807 0.0176738 0.273062 0.224384 0.184577 
0.152024 0.125403 0.103634 0.0858315 0.0712733 
0.0593682 0.0496326 0.0416711 0.0351605 0.0298364 
0.0254825 0.021922 0.0190104 0.289631 0.237999 
0.195777 0.161248 0.133012 0.109922 0.0910395 
0.075598 0.0629705 0.0526442 0.0441996 0.037294 
0.0316468 0.0270287 0.0232522 0.0201639 0.30341 
0.249322 0.205091 0.16892 0.139341 0.115152 
0.0953708 0.0791947 0.0659664 0.0551488 0.0463025 
0.0390683 0.0331524 0.0283146 0.0243585 0.0211232 
0.314268 0.258244 0.21243 0.174965 0.144327 
0.119272 0.0987836 0.0820286 0.068327 0.0571223 
0.0479594 0.0404664 0.0343388 0.0293279 0.0252301 
0.0218791 0.322099 0.264679 0.217723 0.179324 
0.147923 0.122244 0.101245 0.0840726 0.0700296 
0.0585456 0.0491545 0.0414747 0.0351944 0.0300587 
0.0258588 0.0224243 0.326828 0.268565 0.22092 
0.181957 0.150095 0.124039 0.102732 0.0853069 
0.0710577 0.0594052 0.0498761 0.0420836 0.0357112 
0.0305 0.0262385 0.0227535 -0.00224103 -0.00446047 
-0.00663696 -0.00874953 -0.0107778 -0.0127024 -0.0145045 
-0.016167 -0.0176738 -0.0190104 -0.0201639 -0.0211232 
-0.0218791 -0.0224243 -0.0227535 -0.00258426 -0.00514364 
-0.00765348 -0.0100896 -0.0124286 -0.0146478 -0.016726 
-0.0186432 -0.0203807 -0.021922 -0.0232522 -0.0243585 
-0.0252301 -0.0258588 -0.0262385 -0.00300399 -0.00597904 
-0.00889652 -0.0117283 -0.0144472 -0.0170269 -0.0194426 
-0.0216711 -0.0236909 -0.0254825 -0.0270287 -0.0283146 
-0.0293279 -0.0300587 -0.0305 -0.00351724 -0.00700061 
-0.0104166 -0.0137322 -0.0169156 -0.019936 -0.0227645 
-0.0253738 -0.0277387 -0.0298364 -0.0316468 -0.0331524 
-0.0343388 -0.0351944 -0.0357112 -0.00414487 -0.00824983 
-0.0122753 -0.0161826 -0.0199341 -0.0234935 -0.0268267 
-0.0299016 -0.0326885 -0.0351605 -0.037294 -0.0390683 
-0.0404664 -0.0414747 -0.0420836 -0.00491237 -0.00977743 
-0.0145483 -0.0191791 -0.0236252 -0.0278438 -0.0317942 
-0.0354384 -0.0387413 -0.0416711 -0.0441996 -0.0463025 
-0.0479594 -0.0491545 -0.0498761 -0.0058509 -0.0116454 
-0.0173278 -0.0228434 -0.0281389 -0.0331634 -0.0378686 
-0.042209 -0.046143 -0.0496326 -0.0526442 -0.0551488 
-0.0571223 -0.0585456 -0.0594052 -0.00699857 -0.0139297 
-0.0207268 -0.0273242 -0.0336584 -0.0396686 -0.0452966 
-0.0504885 -0.0551941 -0.0593682 -0.0629705 -0.0659664 
-0.068327 -0.0700296 -0.0710577 -0.008402 -0.0167231 
-0.0248831 -0.0328035 -0.040408 -0.0476233 -0.05438 
-0.060613 -0.0662622 -0.0712733 -0.075598 -0.0791947 
-0.0820286 -0.0840726 -0.0853069 -0.0101182 -0.0201389 
-0.0299657 -0.0395039 -0.0486616 -0.0573507 -0.0654875 
-0.0729937 -0.0797968 -0.0858315 -0.0910395 -0.0953708 
-0.0987836 -0.101245 -0.102732 -0.0122168 -0.0243159 
-0.0361809 -0.0476974 -0.0587546 -0.0692459 -0.0790703 
-0.0881333 -0.0963475 -0.103634 -0.109922 -0.115152 
-0.119272 -0.122244 -0.124039 -0.0147831 -0.0294238 
-0.0437811 -0.0577168 -0.0710966 -0.0837918 -0.09568 
-0.106647 -0.116586 -0.125403 -0.133012 -0.139341 
-0.144327 -0.147923 -0.150095 -0.0179212 -0.0356699 
-0.053075 -0.0699689 -0.0861891 -0.101579 -0.115991 
-0.129286 -0.141335 -0.152024 -0.161248 -0.16892 
-0.174965 -0.179324 -0.181957 -0.0217587 -0.0433079 
-0.0644399 -0.0849514 -0.104645 -0.12333 -0.140828 
-0.15697 -0.1716 -0.184577 -0.195777 -0.205091 
-0.21243 -0.217723 -0.22092 -0.0264513 -0.052648 
-0.0783375 -0.103273 -0.127213 -0.149929 -0.1712 
-0.190823 -0.208608 -0.224384 -0.237999 -0.249322 
-0.258244 -0.264679 -0.268565 -0.0321897 -0.0640694 
-0.0953321 -0.125677 -0.154811 -0.182454 -0.208341 
-0.23222 -0.253864 -0.273062 -0.289631 -0.30341 
-0.314268 -0.322099 -0.326828 -0.326828 -0.268565 
-0.22092 -0.181957 -0.150095 -0.124039 -0.102732 
-0.0853069 -0.0710577 -0.0594052 -0.0498761 -0.0420836 
-0.0357112 -0.0305 -0.0262385 -0.0227535 -0.322099 
-0.264679 -0.217723 -0.179324 -0.147923 -0.122244 
-0.101245 -0.0840726 -0.0700296 -0.0585456 -0.0491545 
-0.0414747 -0.0351944 -0.0300587 -0.0258588 -0.0224243 
-0.314268 -0.258244 -0.21243 -0.174965 -0.144327 
-0.119272 -0.0987836 -0.0820286 -0.068327 -0.0571223 
-0.0479594 -0.0404664 -0.0343388 -0.0293279 -0.0252301 
-0.0218791 -0.30341 -0.249322 -0.205091 -0.16892 
-0.139341 -0.115152 -0.0953708 -0.0791947 -0.0659664 
-0.0551488 -0.0463025 -0.0390683 -0.0331524 -0.0283146 
-0.0243585 -0.0211232 -0.289631 -0.237999 -0.195777 
-0.161248 -0.133012 -0.109922 -0.0910395 -0.075598 
-0.0629705 -0.0526442 -0.0441996 -0.037294 -0.0316468 
-0.0270287 -0.0232522 -0.0201639 -0.273062 -0.224384 
-0.184577 -0.152024 -0.125403 -0.103634 -0.0858315 
-0.0712733 -0.0593682 -0.0496326 -0.0416711 -0.0351605 
-0.0298364 -0.0254825 -0.021922 -0.0190104 -0.253864 
-0.208608 -0.1716 -0.141335 -0.116586 -0.0963475 
-0.0797968 -0.0662622 -0.0551941 -0.046143 -0.0387413 
-0.0326885 -0.0277387 -0.0236909 -0.0203807 -0.0176738 
-0.23222 -0.190823 -0.15697 -0.129286 -0.106647 
-0.0881333 -0.0729937 -0.060613 -0.0504885 -0.042209 
-0.0354384 -0.0299016 -0.0253738 -0.0216711 -0.0186432 
-0.016167 -0.208341 -0.1712 -0.140828 -0.115991 
-0.09568 -0.0790703 -0.0654875 -0.05438 -0.0452966 
-0.0378686 -0.0317942 -0.0268267 -0.0227645 -0.0194426 
-0.016726 -0.0145045 -0.182454 -0.149929 -0.12333 
-0.101579 -0.0837918 -0.0692459 -0.0573507 -0.0476233 
-0.0396686 -0.0331634 -0.0278438 -0.0234935 -0.019936 
-0.0170269 -0.0146478 -0.0127024 -0.154811 -0.127213 
-0.104645 -0.0861891 -0.0710966 -0.0587546 -0.0486616 
-0.040408 -0.0336584 -0.0281389 -0.0236252 -0.0199341 
-0.0169156 -0.0144472 -0.0124286 -0.0107778 -0.125677 
-0.103273 -0.0849514 -0.0699689 -0.0577168 -0.0476974 
-0.0395039 -0.0328035 -0.0273242 -0.0228434 -0.0191791 
-0.0161826 -0.0137322 -0.0117283 -0.0100896 -0.00874953 
-0.0953321 -0.0783375 -0.0644399 -0.053075 -0.0437811 
-0.0361809 -0.0299657 -0.0248831 -0.0207268 -0.0173278 
-0.0145483 -0.0122753 -0.0104166 -0.00889652 -0.00765348 
-0.00663696 -0.0640694 -0.052648 -0.0433079 -0.0356699 
-0.0294238 -0.0243159 -0.0201389 -0.0167231 -0.0139297 
-0.0116454 -0.00977743 -0.00824983 -0.00700061 -0.00597904 
-0.00514364 -0.00446047 -0.0321897 -0.0264513 -0.0217587 
-0.0179212 -0.0147831 -0.0122168 -0.0101182 -0.008402 
-0.00699857 -0.0058509 -0.00491237 -0.00414487 -0.00351724 
-0.00300399 -0.00258426 -0.00224103 
0 0 0.02 0.4 
-0.4 -0.02 1.7465e-15 1.17307e-14 2.27374e-15 
2.27374e-15 2.27374e-15 2.27374e-15 2.27374e-15 2.27374e-15 
2.27374e-15 2.27374e-15 2.27374e-15 2.27374e-15 2.27374e-15 
2.27374e-15 2.27374e-15 2.27374e-15 2.27374e-15 2.27374e-15 
0.00196034 0.00390181 0.00580569 0.00765367 0.00942793 
0.0111114 0.0126879 0.0141421 0.0154602 0.0166294 
0.0176384 0.0184776 0.0191388 0.0196157 0.0199037 
0.0228636 0.0263654 0.0306476 0.0358839 0.0422872 
0.0501175 0.0596926 0.0714015 0.0857197 0.103229 
0.124639 0.150821 0.182838 0.221989 0.269865 
0.328409 0.0392069 0.0780361 0.116114 0.153073 
0.188559 0.222228 0.253757 0.282843 0.309204 
0.332588 0.352769 0.369552 0.382776 0.392314 
0.398074 -0.398074 -0.392314 -0.382776 -0.369552 
-0.352769 -0.332588 -0.309204 -0.282843 -0.253757 
-0.222228 -0.188559 -0.153073 -0.116114 -0.0780361 
-0.0392069 -0.328409 -0.269865 -0.221989 -0.182838 
-0.150821 -0.124639 -0.103229 -0.0857197 -0.0714015 
-0.0596926 -0.0501175 -0.0422872 -0.0358839 -0.0306476 
-0.0263654 -0.0228636 -0.0199037 -0.0196157 -0.0191388 
-0.0184776 -0.0176384 -0.0166294 -0.0154602 -0.0141421 
-0.0126879 -0.0111114 -0.00942793 -0.00765367 -0.00580569 
-0.00390181 -0.00196034 0.0199037 0.0196157 0.0191388 
0.0184776 0.0176384 0.0166294 0.0154602 0.0141421 
0.0126879 0.0111114 0.00942793 0.00765367 0.00580569 
0.00390181 0.00196034 2.27374e-15 2.27374e-15 2.27374e-15 
2.27374e-15 2.27374e-15 2.27374e-15 2.27374e-15 2.27374e-15 
2.27374e-15 2.27374e-15 2.27374e-15 2.27374e-15 2.27374e-15 
2.27374e-15 2.27374e-15 2.27374e-15 0.398074 0.392314 
0.382776 0.369552 0.352769 0.332588 0.309204 
0.282843 0.253757 0.222228 0.188559 0.153073 
0.116114 0.0780361 0.0392069 -0.0392069 -0.0780361 
-0.116114 -0.153073 -0.188559 -0.222228 -0.253757 
-0.282843 -0.309204 -0.332588 -0.352769 -0.369552 
-0.382776 -0.392314 -0.398074 -0.00196034 -0.00390181 
-0.00580569 -0.00765367 -0.00942793 -0.0111114 -0.0126879 
-0.0141421 -0.0154602 -0.0166294 -0.0176384 -0.0184776 
-0.0191388 -0.0196157 -0.0199037 0.00224103 0.00446047 
0.00663696 0.00874953 0.0107778 0.0127024 0.0145045 
0.016167 0.0176738 0.0190104 0.0201639 0.0211232 
0.0218791 0.0224243 0.0227535 0.00258426 0.00514364 
0.00765348 0.0100896 0.0124286 0.0146478 0.016726 
0.0186432 0.0203807 0.021922 0.0232522 0.0243585 
0.0252301 0.0258588 0.0262385 0.00300399 0.00597904 
0.00889652 0.0117283 0.0144472 0.0170269 0.0194426 
0.0216711 0.0236909 0.0254825 0.0270287 0.0283146 
0.0293279 0.0300587 0.0305 0.00351724 0.00700061 
0.0104166 0.0137322 0.0169156 0.019936 0.0227645 
0.0253738 0.0277387 0.0298364 0.0316468 0.0331524 
0.0343388 0.0351944 0.0357112 0.00414487 0.00824983 
0.0122753 0.0161826 0.0199341 0.0234935 0.0268267 
0.0299016 0.0326885 0.0351605 0.037294 0.0390683 
0.0404664 0.0414747 0.0420836 0.00491237 0.00977743 
0.0145483 0.0191791 0.0236252 0.0278438 0.0317942 
0.0354384 0.0387413 0.0416711 0.0441996 0.0463025 
0.0479594 0.0491545 0.0498761 0.0058509 0.0116454 
0.0173278 0.0228434 0.0281389 0.0331634 0.0378686 
0.042209 0.046143 0.0496326 0.0526442 0.0551488 
0.0571223 0.0585456 0.0594052 0.00699857 0.0139297 
0.0207268 0.0273242 0.0336584 0.0396686 0.0452966 
0.0504885 0.0551941 0.0593682 0.0629705 0.0659664 
0.068327 0.0700296 0.0710577 0.008402 0.0167231 
0.0248831 0.0328035 0.040408 0.0476233 0.05438 
0.060613 0.0662622 0.0712733 0.075598 0.0791947 
0.0820286 0.0840726 0.0853069 0.0101182 0.0201389 
0.0299657 0.0395039 0.0486616 0.0573507 0.0654875 
0.0729937 0.0797968 0.0858315 0.0910395 0.0953708 
0.0987836 0.101245 0.102732 0.0122168 0.0243159 
0.0361809 0.0476974 0.0587546 0.0692459 0.0790703 
0.0881333 0.0963475 0.103634 0.109922 0.115152 
0.119272 0.122244 0.124039 0.0147831 0.0294238 
0.0437811 0.0577168 0.0710966 0.0837918 0.09568 
0.106647 0.116586 0.125403 0.133012 0.139341 
0.144327 0.147923 0.150095 0.0179212 0.0356699 
0.053075 0.0699689 0.0861891 0.101579 0.115991 
0.129286 0.141335 0.152024 0.161248 0.16892 
0.174965 0.179324 0.181957 0.0217587 0.0433079 
0.0644399 0.0849514 0.104645 0.12333 0.140828 
0.15697 0.1716 0.184577 0.195777 0.205091 
0.21243 0.217723 0.22092 0.0264513 0.052648 
0.0783375 0.103273 0.127213 0.149929 0.1712 
0.190823 0.208608 0.224384 0.237999 0.249322 
0.258244 0.264679 0.268565 0.0321897 0.0640694 
0.0953321 0.125677 0.154811 0.182454 0.208341 
0.23222 0.253864 0.273062 0.289631 0.30341 
0.314268 0.322099 0.326828 -0.326828 -0.268565 
-0.22092 -0.181957 -0.150095 -0.124039 -0.102732 
-0.0853069 -0.0710577 -0.0594052 -0.0498761 -0.0420836 
-0.0357112 -0.0305 -0.0262385 -0.0227535 -0.322099 
-0.264679 -0.217723 -0.179324 -0.147923 -0.122244 
-0.101245 -0.0840726 -0.0700296 -0.0585456 -0.0491545 
-0.0414747 -0.0351944 -0.0300587 -0.0258588 -0.0224243 
-0.314268 -0.258244 -0.21243 -0.174965 -0.144327 
-0.119272 -0.0987836 -0.0820286 -0.068327 -0.0571223 
-0.0479594 -0.0404664 -0.0343388 -0.0293279 -0.0252301 
-0.0218791 -0.30341 -0.249322 -0.205091 -0.16892 
-0.139341 -0.115152 -0.0953708 -0.0791947 -0.0659664 
-0.0551488 -0.0463025 -0.0390683 -0.0331524 -0.0283146 
-0.0243585 -0.0211232 -0.289631 -0.237999 -0.195777 
-0.161248 -0.133012 -0.109922 -0.0910395 -0.075598 
-0.0629705 -0.0526442 -0.0441996 -0.037294 -0.0316468 
-0.0270287 -0.0232522 -0.0201639 -0.273062 -0.224384 
-0.184577 -0.152024 -0.125403 -0.103634 -0.0858315 
-0.0712733 -0.0593682 -0.0496326 -0.0416711 -0.0351605 
-0.0298364 -0.0254825 -0.021922 -0.0190104 -0.253864 
-0.208608 -0.1716 -0.141335 -0.116586 -0.0963475 
-0.0797968 -0.0662622 -0.0551941 -0.046143 -0.0387413 
-0.0326885 -0.0277387 -0.0236909 -0.0203807 -0.0176738 
-0.23222 -0.190823 -0.15697 -0.129286 -0.106647 
-0.0881333 -0.0729937 -0.060613 -0.0504885 -0.042209 
-0.0354384 -0.0299016 -0.0253738 -0.0216711 -0.0186432 
-0.016167 -0.208341 -0.1712 -0.140828 -0.115991 
-0.09568 -0.0790703 -0.0654875 -0.05438 -0.0452966 
-0.0378686 -0.0317942 -0.0268267 -0.0227645 -0.0194426 
-0.016726 -0.0145045 -0.182454 -0.149929 -0.12333 
-0.101579 -0.0837918 -0.0692459 -0.0573507 -0.0476233 
-0.0396686 -0.0331634 -0.0278438 -0.0234935 -0.019936 
-0.0170269 -0.0146478 -0.0127024 -0.154811 -0.127213 
-0.104645 -0.0861891 -0.0710966 -0.0587546 -0.0486616 
-0.040408 -0.0336584 -0.0281389 -0.0236252 -0.0199341 
-0.0169156 -0.0144472 -0.0124286 -0.0107778 -0.125677 
-0.103273 -0.0849514 -0.0699689 -0.0577168 -0.0476974 
-0.0395039 -0.0328035 -0.0273242 -0.0228434 -0.0191791 
-0.0161826 -0.0137322 -0.0117283 -0.0100896 -0.00874953 
-0.0953321 -0.0783375 -0.0644399 -0.053075 -0.0437811 
-0.0361809 -0.0299657 -0.0248831 -0.0207268 -0.0173278 
-0.0145483 -0.0122753 -0.0104166 -0.00889652 -0.00765348 
-0.00663696 -0.0640694 -0.052648 -0.0433079 -0.0356699 
-0.0294238 -0.0243159 -0.0201389 -0.0167231 -0.0139297 
-0.0116454 -0.00977743 -0.00824983 -0.00700061 -0.00597904 
-0.00514364 -0.00446047 -0.0321897 -0.0264513 -0.0217587 
-0.0179212 -0.0147831 -0.0122168 -0.0101182 -0.008402 
-0.00699857 -0.0058509 -0.00491237 -0.00414487 -0.00351724 
-0.00300399 -0.00258426 -0.00224103 0.0227535 0.0224243 
0.0218791 0.0211232 0.0201639 0.0190104 0.0176738 
0.016167 0.0145045 0.0127024 0.0107778 0.00874953 
0.00663696 0.00446047 0.00224103 0.0262385 0.0258588 
0.0252301 0.0243585 0.0232522 0.021922 0.0203807 
0.0186432 0.016726 0.0146478 0.0124286 0.0100896 
0.00765348 0.00514364 0.00258426 0.0305 0.0300587 
0.0293279 0.0283146 0.0270287 0.0254825 0.0236909 
0.0216711 0.0194426 0.0170269 0.0144472 0.0117283 
0.00889652 0.00597904 0.00300399 0.0357112 0.0351944 
0.0343388 0.0331524 0.0316468 0.0298364 0.0277387 
0.0253738 0.0227645 0.019936 0.0169156 0.0137322 
0.0104166 0.00700061 0.00351724 0.0420836 0.0414747 
0.0404664 0.0390683 0.037294 0.0351605 0.0326885 
0.0299016 0.0268267 0.0234935 0.0199341 0.0161826 
0.0122753 0.00824983 0.00414487 0.0498761 0.0491545 
0.0479594 0.0463025 0.0441996 0.0416711 0.0387413 
0.0354384 0.0317942 0.0278438 0.0236252 0.0191791 
0.0145483 0.00977743 0.00491237 0.0594052 0.0585456 
0.0571223 0.0551488 0.0526442 0.0496326 0.046143 
0.042209 0.0378686 0.0331634 0.0281389 0.0228434 
0.0173278 0.0116454 0.0058509 0.0710577 0.0700296 
0.068327 0.0659664 0.0629705 0.0593682 0.0551941 
0.0504885 0.0452966 0.0396686 0.0336584 0.0273242 
0.0207268 0.0139297 0.00699857 0.0853069 0.0840726 
0.0820286 0.0791947 0.075598 0.0712733 0.0662622 
0.060613 0.05438 0.0476233 0.040408 0.0328035 
0.0248831 0.0167231 0.008402 0.102732 0.101245 
0.0987836 0.0953708 0.0910395 0.0858315 0.0797968 
0.0729937 0.0654875 0.0573507 0.0486616 0.0395039 
0.0299657 0.0201389 0.0101182 0.124039 0.122244 
0.119272 0.115152 0.109922 0.103634 0.0963475 
0.0881333 0.0790703 0.0692459 0.0587546 0.0476974 
0.0361809 0.0243159 0.0122168 0.150095 0.147923 
0.144327 0.139341 0.133012 0.125403 0.116586 
0.106647 0.09568 0.0837918 0.0710966 0.0577168 
0.0437811 0.0294238 0.0147831 0.181957 0.179324 
0.174965 0.16892 0.161248 0.152024 0.141335 
0.129286 0.115991 0.101579 0.0861891 0.0699689 
0.053075 0.0356699 0.0179212 0.22092 0.217723 
0.21243 0.205091 0.195777 0.184577 0.1716 
0.15697 0.140828 0.12333 0.104645 0.0849514 
0.0644399 0.0433079 0.0217587 0.268565 0.264679 
0.258244 0.249322 0.237999 0.224384 0.208608 
0.190823 0.1712 0.149929 0.127213 0.103273 
0.0783375 0.052648 0.0264513 0.326828 0.322099 
0.314268 0.30341 0.289631 0.273062 0.253864 
0.23222 0.208341 0.182454 0.154811 0.125677 
0.0953321 0.0640694 0.0321897 -0.0321897 -0.0264513 
-0.0217587 -0.0179212 -0.0147831 -0.0122168 -0.0101182 
-0.008402 -0.00699857 -0.0058509 -0.00491237 -0.00414487 
-0.00351724 -0.00300399 -0.00258426 -0.00224103 -0.0640694 
-0.052648 -0.0433079 -0.0356699 -0.0294238 -0.0243159 
-0.0201389 -0.0167231 -0.0139297 -0.0116454 -0.00977743 
-0.00824983 -0.00700061 -0.00597904 -0.00514364 -0.00446047 
-0.0953321 -0.0783375 -0.0644399 -0.053075 -0.0437811 
-0.0361809 -0.0299657 -0.0248831 -0.0207268 -0.0173278 
-0.0145483 -0.0122753 -0.0104166 -0.00889652 -0.00765348 
-0.00663696 -0.125677 -0.103273 -0.0849514 -0.0699689 
-0.0577168 -0.0476974 -0.0395039 -0.0328035 -0.0273242 
-0.0228434 -0.0191791 -0.0161826 -0.0137322 -0.0117283 
-0.0100896 -0.00874953 -0.154811 -0.127213 -0.104645 
-0.0861891 -0.0710966 -0.0587546 -0.0486616 -0.040408 
-0.0336584 -0.0281389 -0.0236252 -0.0199341 -0.0169156 
-0.0144472 -0.0124286 -0.0107778 -0.182454 -0.149929 
-0.12333 -0.101579 -0.0837918 -0.0692459 -0.0573507 
-0.0476233 -0.0396686 -0.0331634 -0.0278438 -0.0234935 
-0.019936 -0.0170269 -0.0146478 -0.0127024 -0.208341 
-0.1712 -0.140828 -0.115991 -0.09568 -0.0790703 
-0.0654875 -0.05438 -0.0452966 -0.0378686 -0.0317942 
-0.0268267 -0.0227645 -0.0194426 -0.016726 -0.0145045 
-0.23222 -0.190823 -0.15697 -0.129286 -0.106647 
-0.0881333 -0.0729937 -0.060613 -0.0504885 -0.042209 
-0.0354384 -0.0299016 -0.0253738 -0.0216711 -0.0186432 
-0.016167 -0.253864 -0.208608 -0.1716 -0.141335 
-0.116586 -0.0963475 -0.0797968 -0.0662622 -0.0551941 
-0.046143 -0.0387413 -0.0326885 -0.0277387 -0.0236909 
-0.0203807 -0.0176738 -0.273062 -0.224384 -0.184577 
-0.152024 -0.125403 -0.103634 -0.0858315 -0.0712733 
-0.0593682 -0.0496326 -0.0416711 -0.0351605 -0.0298364 
-0.0254825 -0.021922 -0.0190104 -0.289631 -0.237999 
-0.195777 -0.161248 -0.133012 -0.109922 -0.0910395 
-0.075598 -0.0629705 -0.0526442 -0.0441996 -0.037294 
-0.0316468 -0.0270287 -0.0232522 -0.0201639 -0.30341 
-0.249322 -0.205091 -0.16892 -0.139341 -0.115152 
-0.0953708 -0.0791947 -0.0659664 -0.0551488 -0.0463025 
-0.0390683 -0.0331524 -0.0283146 -0.0243585 -0.0211232 
-0.314268 -0.258244 -0.21243 -0.174965 -0.144327 
-0.119272 -0.0987836 -0.0820286 -0.068327 -0.0571223 
-0.0479594 -0.0404664 -0.0343388 -0.0293279 -0.0252301 
-0.0218791 -0.322099 -0.264679 -0.217723 -0.179324 
-0.147923 -0.122244 -0.101245 -0.0840726 -0.0700296 
-0.0585456 -0.0491545 -0.0414747 -0.0351944 -0.0300587 
-0.0258588 -0.0224243 -0.326828 -0.268565 -0.22092 
-0.181957 -0.150095 -0.124039 -0.102732 -0.0853069 
-0.0710577 -0.0594052 -0.0498761 -0.0420836 -0.0357112 
-0.0305 -0.0262385 -0.0227535 
0.25233 0.242738 0.246135 0.269171 
0.313438 0.377834 0.461333 0.563866 0.686118 
0.829083 0.993692 1.18058 1.38986 1.62096 
1.87258 0.301403 0.293022 0.287726 0.294344 
0.321515 0.372476 0.446198 0.541007 0.656087 
0.791345 0.946897 1.12263 1.3179 1.53136 
1.76083 2.00328 0.347124 0.34259 0.341788 
0.353689 0.388161 0.449357 0.536098 0.645952 
0.777192 0.928722 1.0995 1.28805 1.49212 
1.70859 1.93342 2.16181 0.39811 0.397119 
0.400902 0.41877 0.461798 0.534681 0.635804 
0.761753 0.909641 1.07707 1.26147 1.45957 
1.66716 1.87901 2.08904 2.29064 0.450339 
0.45315 0.462323 0.487094 0.539516 0.624748 
0.740595 0.882406 1.04577 1.2265 1.42 
1.62069 1.82192 2.0161 2.19521 2.3514 
0.500888 0.507928 0.523674 0.556713 0.619435 
0.717305 0.847477 1.00377 1.17973 1.36879 
1.56368 1.75603 1.9366 2.09587 2.225 
2.31704 0.547846 0.5596 0.583113 0.625932 
0.699923 0.810392 0.953641 1.1216 1.30518 
1.49479 1.68002 1.84978 1.99305 2.10026 
2.16483 2.18455 0.590183 0.607152 0.639419 
0.693317 0.779312 0.901798 1.05576 1.23079 
1.41463 1.59433 1.75661 1.88887 1.98081 
2.02645 2.02558 1.98404 0.627682 0.650304 
0.69196 0.757689 0.85579 0.988795 1.14971 
1.32531 1.50003 1.658 1.78462 1.86858 
1.90416 1.89278 1.84281 1.76735 0.661027 
0.689514 0.740679 0.818142 0.92739 1.06814 
1.2307 1.39886 1.55433 1.68002 1.7629 
1.79668 1.78351 1.73333 1.66083 1.58105 
0.692083 0.726191 0.786211 0.874136 0.992138 
1.13636 1.29396 1.44623 1.57377 1.66106 
1.7001 1.69237 1.64818 1.58295 1.51211 
1.44718 0.724451 0.763154 0.830228 0.925782 
1.04839 1.19032 1.33578 1.46488 1.55961 
1.60912 1.61268 1.57943 1.52454 1.46362 
1.40815 1.3639 0.764003 0.805152 0.875897 
0.974291 1.09545 1.22815 1.35478 1.4563 
1.5187 1.53767 1.51946 1.47771 1.42768 
1.3811 1.34406 1.31777 0.818464 0.858621 
0.927824 1.02218 1.1341 1.25025 1.35307 
1.42649 1.46211 1.46174 1.4358 1.39818 
1.3607 1.33015 1.30844 1.29451 0.894019 
0.928936 0.990119 1.07231 1.16667 1.25987 
1.33655 1.38516 1.40242 1.39389 1.37042 
1.34305 1.31914 1.30162 1.29032 1.28368 
0.988338 1.01439 1.06173 1.12483 1.19536 
1.26221 1.31394 1.34345 1.35074 1.34196 
1.3257 1.30909 1.29596 1.28714 1.28189 
1.27904 1.08369 1.09938 1.12999 1.17129 
1.21733 1.26045 1.29314 1.31121 1.31533 
1.31006 1.30091 1.29204 1.28536 1.28108 
1.27865 1.27736 2.1426 1.27633 1.27645 
1.27709 1.28016 1.2933 1.34185 1.48472 
1.78384 2.18191 2.48795 2.59046 2.53194 
2.39187 2.21836 2.03495 1.86714 1.27632 
1.27639 1.27679 1.27871 1.28697 1.3178 
1.41277 1.63256 1.97486 2.29946 2.45817 
2.44114 2.319 2.15033 1.96327 1.77237 
1.59983 1.27637 1.27664 1.278 1.28382 
1.30534 1.37212 1.5344 1.81422 2.12416 
2.3182 2.34252 2.24491 2.08773 1.9067 
1.71652 1.52674 1.35725 1.27657 1.27759 
1.28209 1.29854 1.34889 1.47247 1.69712 
1.97301 2.17773 2.23426 2.16296 2.02118 
1.85025 1.6686 1.48324 1.30127 1.14066 
1.27739 1.28091 1.29423 1.3345 1.43228 
1.61299 1.84822 2.04344 2.11803 2.06995 
1.9453 1.7867 1.61636 1.44215 1.26739 
1.09808 0.950361 1.28015 1.29063 1.32353 
1.40287 1.54923 1.74462 1.91782 1.99633 
1.96501 1.85706 1.71212 1.55444 1.39355 
1.23201 1.07176 0.918328 0.785988 1.28772 
1.31293 1.37666 1.49462 1.65351 1.79897 
1.87063 1.84862 1.75523 1.62448 1.48039 
1.33371 1.18726 1.04151 0.898162 0.76243 
0.646728 1.30343 1.35002 1.4417 1.56696 
1.68311 1.74134 1.72215 1.6403 1.52351 
1.39367 1.26177 1.131 1.00139 0.872986 
0.747702 0.630402 0.531647 1.32605 1.38902 
1.48165 1.56842 1.60973 1.58845 1.51489 
1.41108 1.29574 1.179 1.06413 0.950989 
0.838924 0.728299 0.621252 0.522214 0.439969 
1.3438 1.40156 1.45868 1.48085 1.45351 
1.38466 1.29197 1.19066 1.08913 0.990116 
0.893303 0.797652 0.702742 0.609401 0.519872 
0.438034 0.37108 1.33805 1.36439 1.36574 
1.32843 1.25974 1.17481 1.08583 0.998889 
0.915437 0.834573 0.754869 0.675422 0.596316 
0.518721 0.444814 0.377915 0.32407 1.29833 
1.27985 1.22974 1.15566 1.07287 0.992283 
0.917801 0.848897 0.783378 0.719027 0.654354 
0.58886 0.523018 0.458134 0.396255 0.340514 
0.29672 1.23316 1.17438 1.09129 1.00317 
0.923577 0.856304 0.798898 0.747094 0.697131 
0.646449 0.593722 0.538703 0.482032 0.425124 
0.370309 0.321408 0.284675 1.16457 1.0799 
0.982334 0.89415 0.824313 0.771061 0.728209 
0.689723 0.651254 0.610181 0.565262 0.516343 
0.464211 0.410676 0.358887 0.313734 0.28176 
1.11296 1.01641 0.915666 0.832054 0.770937 
0.727411 0.693562 0.662726 0.63047 0.594266 
0.552999 0.506671 0.456336 0.404242 0.354053 
0.310926 0.281089 1.08667 0.987474 0.888402 
0.809008 0.752658 0.713187 0.682297 0.653446 
0.622482 0.58717 0.546636 0.501068 0.451639 
0.400547 0.3511 0.307818 0.276546 1.27631 
2.4281 2.72543 3.03034 3.33812 3.64379 
3.94232 4.22879 4.49856 4.74743 4.97161 
5.16777 5.33306 5.46494 5.56127 5.62025 
2.25494 2.5114 2.76783 3.01925 3.2608 
3.48806 3.69726 3.88551 4.05094 4.19271 
4.311 4.4069 4.48229 4.53955 4.58132 
4.61002 2.38837 2.60749 2.81363 3.00177 
3.16778 3.3087 3.42299 3.51068 3.57331 
3.6138 3.63625 3.64553 3.64691 3.64557 
3.64614 3.65236 2.4771 2.64216 2.78055 
2.88849 2.96412 3.0077 3.02161 3.01011 
2.97884 2.9342 2.88269 2.83035 2.78242 
2.74317 2.71595 2.70333 2.4778 2.56937 
2.62352 2.64058 2.62377 2.57879 2.51295 
2.43414 2.3498 2.26625 2.18828 2.11921 
2.06112 2.01519 1.9821 1.96229 2.36799 
2.37758 2.34945 2.29056 2.20993 2.11712 
2.02074 1.92758 1.84222 1.76722 1.70357 
1.65118 1.60938 1.57724 1.55387 1.53857 
2.16219 2.1051 2.02365 1.92916 1.8318 
1.73932 1.65659 1.58588 1.52753 1.48067 
1.44385 1.41543 1.39386 1.37784 1.36632 
1.35852 1.91247 1.82369 1.72994 1.64071 
1.56194 1.49624 1.44377 1.40321 1.3726 
1.3499 1.33326 1.32116 1.31243 1.30617 
1.30177 1.29877 1.68068 1.59499 1.51848 