
TITLE     = "DG2D to Tecplot"
VARIABLES = "X"
"Y"
"RHO"
"U"
"V"
"VELOCITY_MAG"
"P"
"T"
"THETA1"
"THETA2"
ZONE T="ZONE 1"
STRANDID=0
ZONETYPE=FEQuadrilateral
DATAPACKING=BLOCK
VARLOCATION=([3-10]=CELLCENTERED)
DT=(SINGLE SINGLE SINGLE SINGLE SINGLE SINGLE SINGLE SINGLE SINGLE SINGLE)

Nodes=548, Elements=1006
0.05 0.05 -3.88578e-16 -3.88578e-16 
0.14 0.14 -3.88578e-16 -3.88578e-16 -3.88578e-16 
-3.88578e-16 -3.88578e-16 -3.88578e-16 -3.88578e-16 -3.88578e-16 
-3.88578e-16 -3.88578e-16 -3.88578e-16 -3.88578e-16 -3.88578e-16 
-3.88578e-16 -3.88578e-16 0.045 0.04 0.035 
0.03 0.025 0.02 0.015 0.01 
0.005 0.05 0.05 0.05 0.05 
0.05 0.05 0.05 0.05 0.05 
0.05 0.05 0.05 0.05 0.05 
0.05 0.005 0.01 0.015 0.02 
0.025 0.03 0.035 0.04 0.045 
0.135 0.13 0.125 0.12 0.115 
0.11 0.105 0.1 0.095 0.09 
0.085 0.08 0.075 0.07 0.065 
0.06 0.055 0.14 0.14 0.14 
0.14 0.14 0.14 0.14 0.14 
0.14 0.14 0.14 0.14 0.14 
0.14 0.14 0.055 0.06 0.065 
0.07 0.075 0.08 0.085 0.09 
0.095 0.1 0.105 0.11 0.115 
0.12 0.125 0.13 0.135 0.00441872 
0.00441736 0.004436 0.00447963 0.00443661 0.00442809 
0.00446324 0.0431093 0.0326026 0.0225849 0.012701 
0.0456369 0.0455014 0.0454191 0.0454932 0.0455855 
0.045728 0.0455948 0.00686385 0.0173913 0.0275096 
0.0374057 0.00459018 0.00438888 0.00447111 0.00446296 
0.00440999 0.00444058 0.0041588 0.0275527 0.0378107 
0.0176153 0.00824326 0.0454589 0.0454265 0.04545 
0.0455365 0.045657 0.0457159 0.0458195 0.0121629 
0.0224825 0.0324913 0.0418324 0.00884743 0.0407955 
0.00896493 0.00883337 0.00884395 0.0202569 0.0089191 
0.00960327 0.00913755 0.0409532 0.00891496 0.0299881 
0.0251115 0.0351123 0.0407922 0.0406239 0.00869536 
0.0152134 0.040863 0.0411027 0.0413788 0.0414018 
0.0147973 0.0250314 0.035068 0.00897282 0.00884337 
0.00878903 0.00894468 0.0408949 0.0412111 0.0411742 
0.0410198 0.0415391 0.0199257 0.0300758 0.0181923 
0.0375368 0.0321532 0.0131811 0.0134605 0.0361954 
0.01281 0.0365476 0.0132023 0.0138665 0.0276681 
0.0224389 0.0368659 0.0372007 0.01732 0.0364307 
0.0130739 0.0369863 0.013514 0.0134359 0.0360531 
0.0135036 0.0133544 0.0133615 0.0364685 0.0366656 
0.0228464 0.0274905 0.0372549 0.0363487 0.0327417 
0.0127553 0.0325643 0.0180184 0.0177933 0.0339523 
0.0318517 0.0170449 0.0179754 0.030792 0.0332087 
0.0195711 0.0181048 0.0320417 0.0316947 0.0164669 
0.0181104 0.0313771 0.0180654 0.0173838 0.0319544 
0.0321959 0.0248135 0.0206575 0.0253095 0.0174691 
0.029892 0.0221651 0.0214055 0.0273201 0.0228112 
0.0263727 0.0271974 0.0269534 0.0226528 0.0227146 
0.0276684 0.0225027 0.0274642 0.0228787 0.0284579 
0.027379 0.0227541 0.0541483 0.054455 0.0544357 
0.0544198 0.0543809 0.0543673 0.0543567 0.0543501 
0.0543497 0.0543572 0.0543884 0.0544802 0.0546144 
0.0542672 0.0534098 0.133037 0.122575 0.112549 
0.102561 0.0925489 0.0826102 0.0726712 0.0625365 
0.057671 0.135875 0.135809 0.135651 0.135618 
0.135581 0.135408 0.135325 0.0568516 0.0673419 
0.07744 0.0874743 0.0975143 0.107513 0.117415 
0.126932 0.131627 0.107566 0.127754 0.11752 
0.0975524 0.0875651 0.077664 0.0676187 0.135623 
0.135945 0.135709 0.135614 0.135497 0.13535 
0.135691 0.0621381 0.0724076 0.0824555 0.0924955 
0.102523 0.11248 0.122242 0.0900736 0.0588264 
0.0589122 0.058766 0.0587489 0.0587265 0.0587067 
0.058704 0.0587099 0.0587266 0.0587989 0.0590518 
0.0596068 0.125008 0.095086 0.105152 0.130493 
0.131338 0.0802277 0.115121 0.0704073 0.130889 
0.131483 0.0851154 0.131225 0.131239 0.13172 
0.131219 0.119963 0.0591113 0.13068 0.0698001 
0.110174 0.0798781 0.0899655 0.100058 0.110037 
0.119878 0.075371 0.132083 0.100117 0.131105 
0.0652927 0.131244 0.130709 0.0647365 0.0849132 
0.0748443 0.0950184 0.105071 0.114964 0.124499 
0.128582 0.122093 0.0630798 0.0631493 0.063128 
0.0630706 0.0630644 0.0630797 0.0630909 0.0630964 
0.063189 0.0637306 0.092579 0.11746 0.127108 
0.112589 0.126825 0.112912 0.107676 0.082599 
0.0722022 0.126137 0.068421 0.127289 0.126817 
0.117795 0.125898 0.126773 0.0822879 0.102721 
0.0924919 0.102661 0.0672228 0.126001 0.126534 
0.0976452 0.126867 0.0731853 0.126866 0.122837 
0.0875439 0.107828 0.0638334 0.0772251 0.0627122 
0.0873865 0.0975919 0.12775 0.077822 0.0676322 
0.0674369 0.0674204 0.0674561 0.0675016 0.0675031 
0.0674343 0.0674297 0.122561 0.0798409 0.0951369 
0.0795371 0.100256 0.0899086 0.110402 0.123089 
0.0848519 0.110663 0.0847166 0.119458 0.122296 
0.100234 0.105388 0.121375 0.0744351 0.0694379 
0.120161 0.0950916 0.122245 0.0711932 0.122508 
0.105386 0.0670457 0.115171 0.0752135 0.0900238 
0.116093 0.122451 0.0675702 0.12169 0.0714485 
0.0717484 0.0718188 0.0719091 0.0719968 0.0719489 
0.0716316 0.11751 0.11764 0.122459 0.118168 
0.118519 0.0762931 0.081625 0.0874389 0.0727114 
0.0764926 0.103046 0.113636 0.0976908 0.0926443 
0.113589 0.118124 0.117926 0.118338 0.108093 
0.0717609 0.0925864 0.102799 0.0818851 0.116227 
0.0977945 0.108374 0.087233 0.113929 0.111975 
0.076274 0.0764027 0.0760328 0.0808963 0.085436 
0.0786805 0.110714 0.113032 0.105925 0.113883 
0.11336 0.0766009 0.0761753 0.0953988 0.105258 
0.0758316 0.0903531 0.0901648 0.0951475 0.100543 
0.080513 0.0843652 0.107497 0.100095 0.107818 
0.0806835 0.080691 0.0848378 0.0801522 0.0972823 
0.102259 0.103115 0.110372 0.0983553 0.109151 
0.0884917 0.0930728 0.108961 0.0926068 0.0846292 
0.102984 0.0991606 0.0852298 0.105928 0.104124 
0.0883402 0.0893293 0.0852837 0.0941408 0.095928 
0.0897224 0.0960789 0.100817 0.0906909 
2.27374e-15 0.08 2.27374e-15 0.08 
2.27374e-15 0.08 0.075 0.07 0.065 
0.06 0.055 0.05 0.045 0.04 
0.035 0.03 0.025 0.02 0.015 
0.01 0.005 0.08 0.08 0.08 
0.08 0.08 0.08 0.08 0.08 
0.08 0.005 0.01 0.015 0.02 
0.025 0.03 0.035 0.04 0.045 
0.05 0.055 0.06 0.065 0.07 
0.075 2.27374e-15 2.27374e-15 2.27374e-15 2.27374e-15 
2.27374e-15 2.27374e-15 2.27374e-15 2.27374e-15 2.27374e-15 
0.08 0.08 0.08 0.08 0.08 
0.08 0.08 0.08 0.08 0.08 
0.08 0.08 0.08 0.08 0.08 
0.08 0.08 0.005 0.01 0.015 
0.02 0.025 0.03 0.035 0.04 
0.045 0.05 0.055 0.06 0.065 
0.07 0.075 2.27374e-15 2.27374e-15 2.27374e-15 
2.27374e-15 2.27374e-15 2.27374e-15 2.27374e-15 2.27374e-15 
2.27374e-15 2.27374e-15 2.27374e-15 2.27374e-15 2.27374e-15 
2.27374e-15 2.27374e-15 2.27374e-15 2.27374e-15 0.073068 
0.062485 0.0523731 0.0423956 0.032436 0.0224571 
0.0125876 0.0756118 0.0757056 0.0757568 0.075538 
0.00684692 0.0173529 0.0274681 0.0375397 0.0475266 
0.0574429 0.0673489 0.00434621 0.00436078 0.00444677 
0.00441371 0.067734 0.0573827 0.0473831 0.0374179 
0.0274564 0.0174907 0.00815984 0.0757731 0.0754943 
0.0756791 0.0757735 0.0121385 0.0224228 0.0325115 
0.0425436 0.052485 0.0624263 0.0717924 0.00446898 
0.00440969 0.00441113 0.00413566 0.0649219 0.0248951 
0.0397887 0.0547189 0.0298803 0.0714979 0.0198878 
0.0706789 0.00932699 0.0350954 0.0348322 0.0715723 
0.0715259 0.0713502 0.0705048 0.00907334 0.0597108 
0.0712739 0.0300115 0.0451252 0.0549555 0.0649064 
0.00861035 0.0088934 0.00869946 0.0447738 0.0149144 
0.0249305 0.0497446 0.0198043 0.0500681 0.0147265 
0.0401403 0.0598519 0.00872775 0.00892442 0.0673498 
0.0620638 0.0675375 0.0569997 0.0371363 0.0274877 
0.0618099 0.0428263 0.0273463 0.0172202 0.0135816 
0.0131838 0.0526509 0.0574045 0.012934 0.0171093 
0.0224977 0.0668898 0.0471062 0.0521022 0.0222027 
0.0421173 0.0667477 0.0322049 0.0377877 0.0477772 
0.0672032 0.0672967 0.0125873 0.0326886 0.0133913 
0.0126127 0.0553815 0.0545468 0.029505 0.0639314 
0.0355296 0.0206245 0.0343814 0.018902 0.0598939 
0.0171158 0.044375 0.045627 0.0303415 0.0636227 
0.0494517 0.0249563 0.0393434 0.0593812 0.0406116 
0.0505902 0.0179067 0.0628895 0.0627087 0.0248495 
0.0632608 0.0264799 0.0216868 0.0384827 0.0518159 
0.0229921 0.0333925 0.0282376 0.0364318 0.0414788 
0.0537051 0.0314226 0.0486292 0.0575983 0.0586286 
0.0435586 0.0465816 0.0081473 0.0125732 0.0174806 
0.0224555 0.0274608 0.0324548 0.0374453 0.0424316 
0.0474106 0.052388 0.0573832 0.0624262 0.0675113 
0.0723628 0.0766016 0.0755929 0.0758181 0.0757479 
0.0756651 0.0756727 0.075762 0.0759084 0.0755402 
0.0757835 0.00706306 0.0174327 0.0274061 0.0373642 
0.0473437 0.0573189 0.067246 0.00433442 0.0043048 
0.0043728 0.00443378 0.00442976 0.00441256 0.00437765 
0.00413416 0.00477061 0.0756854 0.075533 0.0758591 
0.0756662 0.0756956 0.0758628 0.0757848 0.0323886 
0.0124082 0.0224161 0.0423477 0.0523318 0.0623034 
0.0717394 0.00443722 0.00432756 0.00441469 0.00443529 
0.00442723 0.00439014 0.0043028 0.0713464 0.0148837 
0.0198814 0.024943 0.0299255 0.0349034 0.0398819 
0.0448425 0.0497813 0.0547125 0.0596866 0.0648307 
0.0705576 0.0715175 0.0713392 0.0713332 0.0704117 
0.0248006 0.0715865 0.071576 0.07185 0.0546145 
0.0197955 0.0714056 0.0446616 0.0397023 0.0148649 
0.034719 0.0718737 0.00929294 0.0646831 0.00859322 
0.0713937 0.0087979 0.00887377 0.00885766 0.00881748 
0.00881046 0.0718415 0.00996794 0.071332 0.049632 
0.0713897 0.0297634 0.0595844 0.00854071 0.00886314 
0.00869224 0.00886515 0.00885463 0.00875821 0.00857761 
0.00796572 0.0682611 0.0225184 0.0274222 0.032357 
0.0373388 0.0422931 0.0472065 0.0520683 0.0568856 
0.0617147 0.0666581 0.0670182 0.0130232 0.0220927 
0.0131941 0.0468895 0.0671421 0.0133069 0.0671176 
0.0129276 0.0666708 0.0677945 0.017043 0.0370156 
0.0675355 0.0616886 0.0320345 0.0132986 0.0669974 
0.0133201 0.0133118 0.0128162 0.0567737 0.0518293 
0.0670219 0.0270931 0.0680608 0.0419698 0.0136707 
0.0669935 0.0670135 0.0171757 0.0131492 0.0125506 
0.0133396 0.0133028 0.0122023 0.0675304 0.0297541 
0.0347961 0.0397496 0.0446635 0.0495121 0.054255 
0.0588564 0.0633492 0.0242852 0.0628512 0.0627499 
0.0177389 0.0177718 0.0178363 0.0178074 0.0193199 
0.0625335 0.0627142 0.017857 0.0169456 0.0342793 
0.0627075 0.0626619 0.0639943 0.0174223 0.0169668 
0.0588243 0.017757 0.0292436 0.0647308 0.0441502 
0.0178329 0.0205976 0.0174859 0.0637711 0.0626877 
0.0629668 0.0392592 0.0249284 0.0537802 0.0215497 
0.0372264 0.0421197 0.0469915 0.0518164 0.0564555 
0.0608207 0.0313785 0.0261956 0.0489322 0.0415281 
0.0212899 0.0591826 0.0575479 0.0583134 0.0267029 
0.0221204 0.0222809 0.0584853 0.0584741 0.0585421 
0.022342 0.0463155 0.0365078 0.0505833 0.058324 
0.0322538 0.0222691 0.0583706 0.0224499 0.0543419 
0.0222023 0.0225196 0.0224769 0.0438969 0.0279031 
0.0444054 0.0493648 0.0347264 0.051807 0.053786 
0.0266568 0.053924 0.0338465 0.0268774 0.0389079 
0.0491998 0.0543431 0.0395204 0.0267594 0.0540075 
0.030308 0.054476 0.0267536 0.0543147 0.0266024 
0.0366857 0.0276973 0.0496161 0.0541357 0.0319603 
0.0466526 0.0416697 0.0488137 0.0316057 0.0499438 
0.0497438 0.0305903 0.0411969 0.0314235 0.0452492 
0.0507574 0.0313837 0.0369063 0.0502615 0.0336304 
0.035689 0.0455313 0.0438632 0.0408287 0.0452902 
0.0309644 0.0465264 0.0387841 0.045836 0.0366194 
0.0355994 0.0417534 0.0407401 0.0411759 
7.7966e-05 6.51543e-05 6.20236e-05 6.20709e-05 
6.23987e-05 6.2167e-05 6.21359e-05 6.1478e-05 6.06023e-05 
0.00011468 0.000120904 0.000124864 0.000124374 0.00012423 
0.000105429 0.000121548 0.000123137 0.000122558 0.000123519 
0.000124129 0.000124992 0.000123243 0.000138904 0.000115986 
0.000124077 0.000123727 0.000124355 9.5827e-05 8.49726e-05 
0.000124104 8.99829e-05 6.39629e-05 8.88615e-05 6.18204e-05 
6.23254e-05 6.23211e-05 6.20288e-05 6.17549e-05 8.74768e-05 
6.09735e-05 0.000125105 0.000124893 0.00012578 0.000123592 
0.000127159 0.000124104 0.000124041 8.85081e-05 0.000109524 
0.000121133 0.000122667 0.000123036 0.000123874 0.000124211 
0.000124672 0.00012677 0.000125982 0.000123961 0.000123702 
0.000131675 8.7605e-05 0.00012676 8.76956e-05 8.74719e-05 
8.74393e-05 8.71928e-05 8.37644e-05 0.000123575 0.00012381 
0.000123627 0.000123889 0.000123645 0.000123379 0.000123261 
0.000123895 0.000123545 0.000117867 8.62495e-05 0.000123927 
0.000123843 0.000123254 0.000123716 0.00012161 0.000124237 
0.000123349 8.75877e-05 8.79489e-05 0.000123852 0.000123579 
0.00012357 0.00012133 0.000119531 0.000111282 0.000122579 
0.000109033 0.000108613 0.000108013 0.000123239 0.000109036 
0.000128187 0.000124632 0.00012399 0.000108577 0.000120855 
9.32328e-05 0.000124915 0.000124238 0.000123438 0.000124159 
0.0001254 0.000125718 0.000125184 0.00013296 0.000121076 
0.000107604 0.00012101 9.87383e-05 0.000123467 0.000116829 
0.000123419 0.000123715 0.000124315 0.000124455 0.00012451 
0.00012191 0.000131301 0.000148722 0.000123932 0.00012263 
0.000108983 0.000120953 0.000111679 0.00012827 0.000107181 
0.000121927 0.000109072 0.000120775 0.000123463 0.000123336 
0.000123261 0.00011964 0.000127398 0.000112916 0.000122069 
0.000122395 0.000120589 0.000117195 0.00012086 0.000123241 
0.000120928 0.000120724 0.000123381 0.000126466 0.000124066 
0.000124443 0.000126588 0.000124096 0.000124074 0.000124489 
0.000125812 0.000116003 0.000110362 0.000124013 0.000131005 
0.00012065 0.000126114 0.000123724 0.000123893 0.000124598 
0.000124599 0.000123872 0.000125376 0.000123788 0.000124013 
0.000124005 0.000122622 0.000120618 0.000130693 0.000126064 
0.000122017 0.000123242 0.000123158 0.000118697 0.000123192 
0.000123967 0.000121611 0.000127528 0.00012403 0.000124099 
0.000127558 0.000124221 0.000126012 0.000125806 0.000125343 
0.000126017 0.000124074 0.000118697 0.000127916 0.00013343 
0.000129201 0.000131336 0.000123312 0.000122995 0.000125099 
0.000121209 0.000122435 0.000123127 0.000125016 0.000118514 
0.000116795 0.00012271 0.000122859 0.000124353 0.000124286 
0.000123877 0.00012399 0.000124232 0.000125478 0.00012407 
0.000127099 0.000124134 0.000124744 0.000123283 0.000120279 
0.000124945 0.000124704 0.000121845 0.000119985 0.00012425 
0.000139827 0.000124033 0.000125637 0.000124688 0.000123746 
0.000114368 0.00012791 0.000123329 0.000124623 0.000120438 
0.000114925 0.000123393 0.000123747 0.000129371 0.000114708 
0.000115416 0.000122676 0.000124857 0.000131652 0.000124178 
0.00013685 0.000125221 0.000124514 0.000114368 0.000124708 
0.000124155 0.000115428 0.000125221 0.000123088 0.000125735 
0.000123792 0.000124457 0.000123372 0.000124879 0.000123716 
0.000116451 0.000112519 0.0001245 0.000125524 0.00012414 
0.000123102 0.000123168 0.000124587 0.000124557 0.000121705 
0.000119942 0.000125516 0.000124174 0.000123813 0.000122695 
0.000123055 0.000114217 0.000128893 0.000125282 0.000126381 
0.000136376 0.000124594 0.000127458 0.000123891 0.000118467 
0.000121221 0.000123274 0.00011603 0.000121203 0.000112358 
0.000114828 0.000123002 0.000126222 0.000124975 0.000133376 
0.000123679 0.00011873 0.000116401 0.000127307 0.000132254 
0.000131051 0.000129262 0.000124271 0.000126922 0.00013264 
0.000129822 0.000130943 0.000125563 0.000123982 0.000127163 
0.000125266 0.000123922 0.000125497 0.00012482 0.000124443 
0.000119017 0.000126489 0.000124533 0.00012241 0.000122712 
0.000130455 0.000126619 0.000126298 0.000117013 0.00011944 
0.000118996 0.000129637 0.000124403 0.000123218 0.000119946 
0.000124811 0.000124927 0.000123218 0.000126718 0.000123802 
0.000117681 0.00013507 0.000129423 0.000126777 0.000124351 
0.00011457 0.000125235 0.000124135 0.000123844 0.000124499 
0.000126266 0.000124416 0.000133933 0.000123277 0.000123973 
0.000121802 0.000123726 0.000138357 0.000118286 0.000118498 
0.000118765 0.000123801 0.000124609 0.000121628 0.000124208 
0.000121691 0.000126029 0.000120535 0.000125953 0.000120639 
0.000125565 0.00012079 0.000125572 0.000120946 0.0001255 
0.000122164 0.000125621 0.000122845 0.000126142 0.000123235 
0.000126385 0.000122948 0.000126553 0.000120944 0.000123899 
0.000109502 0.000107799 0.000120325 0.000113616 0.000121674 
0.000125026 0.000124673 0.000124831 0.000125019 0.000124707 
0.000123436 0.000125847 0.000127404 0.000128106 0.000135096 
0.000104181 0.000123633 0.000125864 0.000125434 0.000125109 
0.000124717 0.000123694 0.000122943 0.000120255 0.00012566 
0.000124322 0.000124287 0.000123888 0.000123438 0.000123417 
0.000124283 0.000129201 0.000135012 0.000126244 0.000143713 
0.0001387 0.00012361 0.000124698 0.000126198 0.000124209 
0.00012764 0.000124884 0.000124045 0.000124937 0.000125006 
0.000124012 0.000123658 0.000121035 0.000126821 0.000124658 
0.000126261 0.000125499 0.000124548 0.000124917 0.0001242 
0.000123469 0.00012673 0.000126627 0.000124434 0.000124142 
0.00012363 0.000123364 0.000123702 0.000125623 0.000122395 
0.000111132 0.000124219 0.000124474 0.000125448 0.000123353 
0.000123082 0.000124157 0.000124528 0.000125135 0.000124892 
0.000123223 0.000124015 0.000123805 0.000123859 0.00012352 
0.000122009 0.000124919 0.000124863 0.000125486 0.000121171 
0.000123885 0.000123903 0.000123802 0.000123729 0.00012332 
0.000119594 0.000121861 0.000124995 0.000123109 0.000124269 
0.000124123 0.000122319 0.000124246 0.000121657 0.00011498 
0.000124393 0.000125136 0.000122602 0.000126403 0.000122051 
0.000126926 0.000122282 0.00012635 0.000122054 0.000125937 
0.000122008 0.000125925 0.000122104 0.000125728 0.000122249 
0.000125431 0.000122549 0.000125237 0.000122694 0.000125431 
0.000126247 0.000127297 0.000123166 0.000133009 0.000131592 
0.000125983 0.000124226 0.00012413 0.000123965 0.000126879 
0.000135238 0.000124389 0.000124033 0.000123922 0.000122074 
0.0001232 0.000124692 0.000123204 0.000124402 0.00012588 
0.000124629 0.000124385 0.000124157 0.000126279 0.000122649 
0.000124199 0.000123865 0.000124473 0.000121149 0.000128425 
0.00012103 0.000124359 0.000132211 0.000123811 0.000123906 
0.000134394 0.000124454 0.000124128 0.000123718 0.000123731 
0.000123964 0.000122827 0.000125007 0.000133505 0.000125628 
0.000123167 0.000124075 0.000124214 0.00013751 0.000124102 
0.0001246 0.000112425 0.000124583 0.000137356 0.000126478 
0.000121237 0.000122466 0.000132244 0.000124279 0.000122817 
0.000118833 0.000125275 0.000110576 0.000124235 0.000124482 
0.000120537 0.000130222 0.00012695 0.000122252 0.000122088 
0.000124319 0.000124378 0.00012448 0.000124001 0.000124364 
0.000123909 0.000123705 0.00012376 0.000124751 0.000124206 
0.000124573 0.000112664 0.000139519 0.000121271 0.000123567 
0.000124193 0.000123984 0.000117052 0.000124439 0.000123756 
0.000124074 0.000116047 0.000124523 0.000123898 0.000124104 
0.000125239 0.000123885 0.000124458 0.000123284 0.000121996 
0.000123838 0.000122063 0.000125852 0.000122206 0.000125672 
0.00012248 0.000125224 0.000122681 0.000124582 0.000122526 
0.000123869 0.000122003 0.000123373 0.000123102 0.000116888 
0.000123224 0.000124301 0.000123289 0.000124526 0.000123495 
0.000122791 0.000124901 0.000123374 0.000123422 0.000123517 
0.000124864 0.000124679 0.000136303 0.000131324 0.000135517 
0.000119388 0.000117491 0.000123307 0.000123094 0.000124053 
0.000123009 0.000114776 0.000121705 0.000122636 0.00012706 
0.000123302 0.000123819 0.000124659 0.000123912 0.000124027 
0.000123428 0.000124436 0.000125321 0.000124636 0.000121565 
0.000124405 0.00012403 0.000125403 0.000125173 0.000124074 
0.000123937 0.000122802 0.000123614 0.000121597 0.000123283 
0.000124425 0.000124829 0.000123116 0.000132101 0.000123414 
0.00012462 0.00012352 0.000124437 0.000124065 0.000123644 
0.000124311 0.000127449 0.000124822 0.000114578 0.000124024 
0.000124377 0.000124513 0.000123801 0.000129525 0.000123678 
0.000125609 0.000123908 0.000120848 0.000115264 0.000124595 
0.000124039 0.000125228 0.000120468 0.00012466 0.000128181 
0.000124646 0.000127767 0.000124451 0.000130335 0.000116026 
0.00012242 0.000121868 0.000126129 0.000122182 0.000125612 
0.000122653 0.000125263 0.000123146 0.000124572 0.00012337 
0.000123376 0.000122676 0.0001217 0.000119693 0.000118184 
0.000119747 0.00012357 0.000126686 0.000130096 0.00012411 
0.000125143 0.000123168 0.000124226 0.000122936 0.000116431 
0.000126478 0.000123451 0.000125454 0.000125258 0.00012331 
0.000124721 0.000124132 0.000123533 0.000127876 0.000123083 
0.000124066 0.000124443 0.000123971 0.000125028 0.000124896 
0.000123141 0.000129205 0.000125505 0.000125358 0.000114508 
0.000123704 0.000126009 0.000113944 0.000123635 0.000123585 
0.000123411 0.000124565 0.000121891 0.000123313 0.000118034 
0.000113414 0.000125445 0.000122798 0.000124859 0.000114653 
0.000121939 0.000123103 0.000132123 0.000128245 0.000117084 
0.000124319 0.000123463 0.000115898 0.000125337 0.000124384 
0.000121603 0.000125806 0.000117009 0.00013637 0.000124353 
0.000123096 0.000123004 0.000122952 0.000123722 0.00012325 
0.000124193 0.000121765 0.000117154 0.000125707 0.000131736 
0.000121822 0.000122674 0.000125142 0.000123488 0.000124898 
0.000124139 0.000124835 0.000124466 0.000122542 0.000122471 
0.000115644 0.0001211 0.000120845 0.000123683 0.000120223 
0.000121942 0.000127112 0.000124976 0.000125112 0.000123605 
0.000142057 0.000130133 0.000128526 0.000132634 0.000131038 
0.000123362 0.000115714 0.000125157 0.000132631 0.000130271 
0.000126395 0.000116006 0.000122495 0.000123522 0.000130698 
0.000128197 0.000124382 0.000123723 0.000124626 0.000121704 
0.000120927 0.000128523 0.000132728 0.000126487 0.000120177 
0.000126315 0.000123561 0.000119605 0.00013104 0.00012486 
0.00012483 0.000127855 0.000116173 0.000124741 0.000120598 
0.000127546 0.000123238 0.000124655 0.000124909 0.00012437 
0.000125221 0.000121367 0.000123939 0.000132807 0.000123045 
0.0001255 0.000121881 0.000123359 0.000120394 0.00012776 
0.000124524 0.000122108 0.000124927 0.000131156 0.000126104 
0.000126071 0.000118836 0.000122849 0.000117827 0.000123606 
0.000126387 0.000126224 0.000114348 0.000122758 0.000135636 
0.000124995 0.000122983 0.000117631 0.000120071 0.000123989 
0.00012978 0.000117023 0.000127036 0.000121956 0.000122497 
0.000127109 0.000123478 0.000126898 0.000124429 0.000119467 
0.000107658 0.000122102 0.000132992 0.000123144 0.000130979 
0.000122789 0.00012316 0.000126102 0.000136327 0.000114091 
0.000124945 0.000117202 0.000124611 0.000123623 0.000120709 
0.000117954 0.000121403 0.00011933 0.000122504 0.000120748 
0.000124984 0.000124856 0.000126183 0.000122661 0.00012712 
0.000126482 0.000124635 0.000124544 0.000123156 0.000130393 
0.000128244 0.000125235 0.000130718 0.000126636 0.000132135 
0.000123266 0.000124757 0.000125651 0.000125415 0.000123886 
0.000123721 0.000107835 0.000125463 0.00013254 0.00012966 
0.000132844 0.000127759 0.000124471 0.000126785 0.000127092 
0.000123827 0.00012756 0.000127523 0.000134325 0.000123005 
0.000116363 0.000135464 0.000126853 0.000119555 0.000122462 
0.000122864 0.000116773 0.000125414 0.000125407 0.000132948 
0.000117078 0.000111623 0.000124052 0.00012662 0.000121883 
0.000125671 0.000127408 0.000126555 0.000132038 0.000123407 
0.000128682 0.000115585 0.000116931 0.000122546 0.000132456 
0.000127578 0.000124382 0.000124391 0.00011557 0.000114929 
0.000111154 0.000128971 0.000113021 0.000119812 0.000118529 
0.000127358 0.000125624 0.000118758 0.000122034 0.000128507 
0.000124141 0.000113555 0.000122271 0.000124742 0.000131501 
0.000126026 0.000120516 0.000124691 0.000128923 0.000126955 
0.000130395 0.000131123 0.000130681 0.000118755 0.000129376 
0.000129323 0.000131018 0.000133558 0.000123204 0.000113565 
0.000118509 0.000126741 0.000111152 0.000126166 0.00012427 
0.000127278 0.000128059 
657.807 944.755 951.322 949.662 
950.262 949.725 949.762 949.783 932.216 
818.871 801.027 797.719 795.408 802.037 
1094.15 1098.6 1098.4 1098.56 1098.89 
1098.96 1098.94 1098.68 1002.41 1089.26 
1098.19 1098.23 1098.42 983.925 1056.76 
1099.37 1047.88 954.996 1048.86 949.095 
950.154 950.058 949.465 951.588 1047.66 
953.386 986.253 795.052 991.439 804.761 
989.996 984.922 798.018 1048.62 796.904 
1098.69 1098.61 1098.81 1098.93 1098.79 
1098.94 1097.12 1098.38 1098.23 1098.2 
1098.64 1047.83 985.044 1048.08 1047.77 
1047.53 1047.87 1044.23 985.645 1098.27 
1098.26 1098.31 1098.28 1098.25 1097.69 
1098.25 1098.24 1097.11 1047.47 1098.33 
1098.3 1098.16 1098.37 1097.85 1098.34 
1098.15 1048.01 1048.15 1098.27 1098.41 
987.02 1097.92 1096.1 1087.1 1098.15 
1086.35 1086.23 1085.97 1082.1 1086.34 
1083.99 1089.31 1098.46 1086.18 1095.18 
1067.8 1082.5 1082.38 1094.96 1095.05 
1083.24 1095.44 1085.79 1097.05 1097.8 
1085.93 1095.29 1035.31 1082.54 1094.1 
1098.37 1098.13 1098.5 1098.49 1098.59 
1097.7 1083.64 1102.18 1098.32 1097.89 
1086.37 1095.3 1086.82 1096.92 1085.76 
1095.79 1086.39 1095.26 1098.31 1098.01 
1097.66 1086.81 1093.55 1093.35 1095.26 
1094.83 1097.98 1088.3 1095.32 1098.05 
1095.23 1095.19 1095.78 1098.19 1098.17 
1098.51 1098.96 1098.47 1098.21 1098.81 
1098.76 1096.85 1095.33 1098.28 1099.35 
1098.05 1096.32 1098.35 1098.15 1098.46 
1098.36 1098.15 1098.55 1098.23 1098.16 
1098.39 1098.16 1097.21 1099.73 1098.27 
1097.36 1097.46 1098.32 1096.95 1098.49 
1098.43 1097.05 1098.1 1098.45 1098.29 
1098.91 1098.43 1098.79 1098.46 1098.64 
1098.68 1098.28 1096.43 1098.82 1100.45 
1099.41 1099.09 1097.49 1097.46 1098.63 
1097.85 1097.94 1097.45 1098.53 1097.14 
1096.74 1098.42 1097.37 1098.33 1098.5 
1098.12 1098.41 1098.13 1098.3 1098.2 
1098.72 1098.14 1098.35 1098.2 1097.29 
1098.55 1098.45 1097.57 1097.58 1098.57 
1101.05 1098.46 1097.99 1098.2 1098.56 
1096.09 1098.33 1098.4 1098.01 1097.18 
1096.74 1098.09 1098.11 1099.09 1096.67 
1096.63 1098.01 1097.99 1099.62 1098.1 
1100.24 1097.84 1098.54 1096.92 1098.2 
1098.34 1096.95 1098.38 1097.7 1098.06 
1098 1098.15 1098.3 1098.63 1098.1 
1095.99 1096.1 1098.09 1098.71 1099.15 
1098.4 1098.09 1098.19 1098.51 1097.43 
1096.84 1098.05 1098.46 1098.05 1098.11 
1097.77 1096.57 1099.09 1098.41 1098.89 
1099.86 1098.76 1099.08 1098.08 1097.46 
1097.67 1098.04 1096.51 1098.03 1096.18 
1096.6 1098.42 1098.59 1098.62 1099.84 
1098 1097.49 1096.41 1098.59 1099.48 
1099.06 1099.19 1098.47 1098.6 1099.59 
1099.32 1099.86 1098.71 1098.06 1099.04 
1098.33 1098.04 1098.45 1098.3 1098.67 
1097.53 1098.61 1098.57 1098.19 1097.9 
1098.8 1099.35 1098.74 1097.15 1097.25 
1097.5 1099.48 1098.68 1098.29 1097.87 
1098.28 1098.65 1097.86 1099.19 1098.14 
1097.33 1099.97 1099.11 1099.13 1098.57 
1096.98 1098.85 1098.72 1098.3 1098.2 
1098.56 1098.28 1099.56 1098.3 1098.07 
1098.27 1098.5 1100.46 1097.29 1096.92 
1096.54 1098.12 1098.54 1097.68 1098.71 
1097.64 1099.04 1097.42 1098.96 1097.45 
1098.81 1097.5 1098.81 1097.54 1098.8 
1097.76 1098.83 1097.93 1098.97 1097.9 
1098.99 1097.85 1098.65 1095.98 1099.43 
959.331 752.512 1074.3 823.261 801.952 
793.804 795.817 798.844 798.595 795.177 
789.899 803.264 793.309 986.26 969.982 
1094.06 1098.14 1098.23 1097.88 1098.12 
1098.08 1097.9 1097.69 1098.44 1098.27 
1098.27 1098.33 1098.27 1098.19 1098.19 
1098.35 1098.9 1099.51 1098.35 1101.65 
1003.53 985.98 798.073 991.483 803.557 
988.443 792.026 986.977 798.841 797.69 
791.436 794.611 1097.26 1098.26 984.339 
1098.36 1098.14 1098.04 1098.11 1097.99 
1097.86 1096.4 1098.75 1098.34 1098.32 
1098.22 1098.18 1098.23 1098.61 987.755 
1096.1 987.218 986.644 983.45 983.67 
1097.84 1098.05 1098.13 1098.19 1097.67 
1098.15 1098.32 1098.29 1098.3 1098.23 
1097.96 982.172 1098.17 1098.22 1097.83 
1098.29 1098.31 1098.29 1098.27 1098.18 
1097.49 1098.03 985.394 984.252 987.126 
1097.87 1097.76 1098.09 1097.89 1096.01 
1082.98 1098.28 1097.66 1098.87 1097.59 
1098.54 1097.72 1098.51 1097.71 1098.91 
1097.71 1098.91 1097.74 1098.86 1097.78 
1098.79 1097.9 1098.73 1097.92 1098.73 
1098.42 1099.16 1096.68 1099.54 1077.06 
1082.88 1083 1095.26 1082.94 1086.51 
1097.4 1098.12 1081.97 1082.23 1080.74 
1098.29 1098.51 1098.04 1082.72 1095.32 
1098.54 1098.48 1098.26 1098.75 1097.92 
1098.45 1098.2 1081.43 1094.48 1099.59 
1097.83 1098.35 1084.08 1082.71 1095.21 
1099.8 1098.41 1098.35 1098.27 1098.29 
1098.4 1080.8 1094.88 1100 1098.57 
1097.91 1082.98 1095.29 1099.93 1098.45 
1098.36 1093.38 1095.26 1096.06 1095.26 
1094.62 1082.45 1099.96 1095.3 1094.94 
1097.07 1099.09 1095.32 1098.28 1098.34 
1097.94 1086.39 1095.26 1098.1 1097.77 
1098.39 1098.4 1098.4 1098.34 1098.38 
1098.31 1098.28 1098.25 1098.33 1098.61 
1097.72 1096.43 1101.01 1097.99 1098.26 
1098.36 1098.33 1094.54 1098.36 1098.21 
1098.24 1097.04 1098.42 1098.32 1098.35 
1097.63 1098.19 1098.33 1098.37 1097.76 
1098.61 1097.73 1098.91 1097.76 1098.85 
1097.82 1098.76 1097.89 1098.63 1097.92 
1098.48 1098.02 1098.37 1098.4 1097.08 
1098.43 1098.18 1097.95 1098.56 1098.26 
1098.15 1098.62 1098.11 1098.25 1098.26 
1098.34 1098.41 1100.18 1100.18 1099.87 
1097.05 1097.02 1098.26 1098.2 1098.44 
1098.18 1096.59 1097.93 1098.21 1098.74 
1098.3 1098.19 1098.46 1098.12 1098.32 
1098.22 1098.41 1098.62 1098.43 1097.98 
1098.06 1098.48 1098.59 1098.47 1098.13 
1098.25 1098.99 1098.24 1097.32 1097.87 
1098.52 1098.41 1098.21 1099.49 1098.83 
1098.28 1098.19 1098.34 1098.29 1098.09 
1098.3 1098.64 1098.47 1096.19 1098.35 
1098.4 1098.36 1098.31 1099.57 1098.25 
1098.52 1097.69 1097.45 1097.16 1098.21 
1098.34 1098.54 1097.28 1098.42 1098.85 
1098.46 1098.95 1098.41 1099.26 1097.16 
1097.7 1097.7 1099.02 1097.75 1098.86 
1097.84 1098.76 1097.96 1098.63 1098.07 
1098.46 1098.05 1098.18 1097.65 1097.54 
1097.82 1098.35 1098.97 1099.32 1098.34 
1098.55 1098.15 1098.37 1098.23 1097.17 
1099.03 1098.16 1098.75 1098.66 1098.25 
1098.47 1098.37 1098.27 1098.29 1098.26 
1098.36 1098.36 1098.36 1098.48 1098.45 
1098.15 1098.85 1098.57 1098.59 1096.55 
1097.99 1098.61 1096.43 1098.26 1098.22 
1098.23 1098.42 1098.03 1098.07 1096.38 
1096.22 1098.71 1098.12 1098.49 1097.14 
1098.05 1098.33 1099.69 1099.07 1097.07 
1098.39 1098.08 1096.91 1098.55 1099.04 
1098.13 1098.62 1097.05 1099.9 1098.48 
1097.92 1097.84 1098.32 1098.25 1098.14 
1098.27 1097.91 1096.68 1098.45 1099.13 
1097.58 1097.83 1098.65 1097.91 1098.63 
1098.09 1098.26 1098.16 1098.65 1097.76 
1096.2 1097.37 1097.82 1098.33 1097.68 
1097.72 1099.09 1098.17 1098.48 1098.02 
1101.3 1099.14 1099.63 1099.68 1098.93 
1098.16 1096.81 1097.9 1099.3 1099.3 
1098.8 1096.31 1098 1098.64 1099.33 
1098.92 1098.41 1098.22 1098.38 1097.81 
1098.11 1099.14 1099.54 1098.89 1097.08 
1098 1098.34 1096.38 1098.97 1098.41 
1098.43 1098.76 1096.86 1098.51 1097.28 
1099.05 1098.14 1098.47 1098.45 1098.35 
1098.56 1098.04 1097.68 1099.73 1098.12 
1098.58 1098.02 1098.1 1097.74 1098.93 
1098.48 1097.99 1098.45 1099.63 1098.42 
1098.86 1097.2 1099.18 1097.22 1098.02 
1098.58 1099.1 1096.53 1098.05 1099.87 
1098.45 1098.95 1097.25 1098 1098.33 
1099.61 1097.09 1099.01 1098.06 1097.81 