
TITLE     = "DG2D to Tecplot"
VARIABLES = "X"
"Y"
"RHO"
"U"
"V"
"VELOCITY_MAG"
"P"
"T"
"THETA1"
"THETA2"
ZONE T="ZONE 1"
STRANDID=0
ZONETYPE=FEQuadrilateral
DATAPACKING=BLOCK
VARLOCATION=([3-10]=CELLCENTERED)
DT=(SINGLE SINGLE SINGLE SINGLE SINGLE SINGLE SINGLE SINGLE SINGLE SINGLE)

Nodes=3363, Elements=6441
-3.88578e-16 1.05855e-16 1.08304e-16 -1.94289e-16 
-3.88578e-16 -3.88578e-16 -3.88578e-16 -3.88578e-16 -3.88578e-16 
-3.88578e-16 -3.88578e-16 -3.88578e-16 -3.88578e-16 -3.88578e-16 
-3.88578e-16 -3.88578e-16 -3.88578e-16 -3.88578e-16 -3.88578e-16 
-3.88578e-16 -3.88578e-16 -3.88578e-16 -3.88578e-16 -3.88578e-16 
-3.88578e-16 -3.88578e-16 -3.88578e-16 -3.88578e-16 -3.88578e-16 
-3.88578e-16 -3.88578e-16 -3.88578e-16 -3.88578e-16 -3.88578e-16 
-3.88578e-16 -3.88578e-16 -3.88578e-16 -3.88578e-16 -0.000996918 
-0.00199136 -0.00298085 -0.00396292 -0.00493515 -0.0058951 
-0.0068404 -0.0077687 -0.00867767 -0.00956508 -0.0104287 
-0.0112664 -0.0120761 -0.0128558 -0.0136035 -0.0143173 
-0.0149956 -0.0156366 -0.0162388 -0.0168005 -0.0173205 
-0.0177974 -0.0182301 -0.0186175 -0.0189585 -0.0192525 
-0.0194986 -0.0196962 -0.0198448 -0.0199441 -0.0199938 
-0.0199938 -0.0199441 -0.0198448 -0.0196962 -0.0194986 
-0.0192525 -0.0189585 -0.0186175 -0.0182301 -0.0177974 
-0.0173205 -0.0168005 -0.0162388 -0.0156366 -0.0149956 
-0.0143173 -0.0136035 -0.0128558 -0.0120761 -0.0112664 
-0.0104287 -0.00956508 -0.00867767 -0.0077687 -0.0068404 
-0.0058951 -0.00493515 -0.00396292 -0.00298085 -0.00199136 
-0.000996918 -3.88578e-16 -3.88578e-16 -3.88578e-16 -3.88578e-16 
-3.88578e-16 -3.88578e-16 -3.88578e-16 -3.88578e-16 -3.88578e-16 
-3.88578e-16 -3.88578e-16 -3.88578e-16 -3.88578e-16 -3.88578e-16 
-3.88578e-16 -3.88578e-16 -3.88578e-16 -3.88578e-16 -3.88578e-16 
-3.88578e-16 -3.88578e-16 -3.88578e-16 -3.88578e-16 -3.88578e-16 
-3.88578e-16 -3.88578e-16 -3.88578e-16 -3.88578e-16 -3.88578e-16 
-3.88578e-16 -3.88578e-16 -3.88578e-16 -3.88578e-16 -3.88578e-16 
-0.00100085 -0.00200052 -0.00299783 -0.00399163 -0.00498078 
-0.0059642 -0.00694084 -0.00790968 -0.00886979 -0.00982026 
-0.0107603 -0.011689 -0.0126058 -0.01351 -0.0144011 
-0.0152784 -0.0161416 -0.0169902 -0.0178239 -0.0186423 
-0.0194452 -0.0202325 -0.0210038 -0.0217591 -0.0224983 
-0.0232213 -0.023928 -0.0246184 -0.0252925 -0.0259503 
-0.0265919 -0.0272173 -0.0278265 -0.0284196 -0.0289967 
-0.0295578 -0.0301032 -0.0306327 -0.0311467 -0.031645 
-0.032128 -0.0325956 -0.0330479 -0.0334851 -0.0339073 
-0.0343145 -0.0347069 -0.0350846 -0.0354477 -0.0357962 
-0.0361303 -0.03645 -0.0367555 -0.0370468 -0.037324 
-0.0375872 -0.0378364 -0.0380718 -0.0382933 -0.0385011 
-0.0386952 -0.0388757 -0.0390426 -0.039196 -0.0393358 
-0.0394623 -0.0395753 -0.039675 -0.0397613 -0.0398343 
-0.039894 -0.0399404 -0.0399735 -0.0399934 -0.04 
-0.0399934 -0.0399735 -0.0399404 -0.039894 -0.0398343 
-0.0397613 -0.039675 -0.0395753 -0.0394623 -0.0393358 
-0.039196 -0.0390426 -0.0388757 -0.0386952 -0.0385011 
-0.0382933 -0.0380718 -0.0378364 -0.0375872 -0.037324 
-0.0370468 -0.0367555 -0.03645 -0.0361303 -0.0357962 
-0.0354477 -0.0350846 -0.0347069 -0.0343145 -0.0339073 
-0.0334851 -0.0330479 -0.0325956 -0.032128 -0.031645 
-0.0311467 -0.0306327 -0.0301032 -0.0295578 -0.0289967 
-0.0284196 -0.0278265 -0.0272173 -0.0265919 -0.0259503 
-0.0252925 -0.0246184 -0.023928 -0.0232213 -0.0224983 
-0.0217591 -0.0210038 -0.0202325 -0.0194452 -0.0186423 
-0.0178239 -0.0169902 -0.0161416 -0.0152784 -0.0144011 
-0.01351 -0.0126058 -0.011689 -0.0107603 -0.00982026 
-0.00886979 -0.00790968 -0.00694084 -0.0059642 -0.00498078 
-0.00399163 -0.00299783 -0.00200052 -0.00100085 -0.000766148 
-0.000867719 -0.00092032 -0.000915785 -0.000886408 -0.000864714 
-0.000858112 -0.000860104 -0.000863684 -0.000866079 -0.000866991 
-0.000866993 -0.000866689 -0.000866418 -0.000866268 -0.0008662 
-0.00086616 -0.000866118 -0.000866073 -0.000866034 -0.000866009 
-0.000865991 -0.000865944 -0.000865791 -0.000865404 -0.000864641 
-0.000863449 -0.000862033 -0.000861025 -0.000861535 -0.000865122 
-0.000873921 -0.000890601 -0.000924323 -0.00188686 -0.00286326 
-0.00384155 -0.00481559 -0.00578262 -0.00674054 -0.0076865 
-0.00861749 -0.00953143 -0.0104266 -0.0113009 -0.0121513 
-0.0129744 -0.0137674 -0.0145274 -0.0152518 -0.0159387 
-0.0165859 -0.017192 -0.0177548 -0.0182739 -0.0187471 
-0.0191743 -0.0195535 -0.0198848 -0.0201661 -0.0203979 
-0.0205786 -0.0207089 -0.0207871 -0.0208143 -0.0207892 
-0.0207129 -0.0205844 -0.0204054 -0.0201751 -0.0198954 
-0.0195656 -0.019188 -0.018762 -0.0182899 -0.0177714 
-0.0172092 -0.0166032 -0.0159564 -0.0152692 -0.0145449 
-0.0137836 -0.012989 -0.0121613 -0.0113044 -0.0104186 
-0.00950796 -0.00857313 -0.00761793 -0.00664346 -0.00565259 
-0.0046474 -0.00363019 -0.0026148 -0.00160938 -0.000723793 
-0.00100562 -0.000885941 -0.000885555 -0.000873248 -0.000860877 
-0.000855186 -0.000853044 -0.000851155 -0.000849073 -0.000847188 
-0.000845779 -0.000844875 -0.000844359 -0.00084409 -0.000843967 
-0.000843925 -0.000843922 -0.00084392 -0.0008439 -0.000843868 
-0.00084386 -0.000843899 -0.000843871 -0.00084339 -0.000841842 
-0.00083876 -0.00083441 -0.000829904 -0.000825643 -0.000820252 
-0.000819271 -0.00087771 -0.00113481 -0.00130449 -0.0032963 
-0.00525876 -0.00717992 -0.00906185 -0.0108992 -0.0126853 
-0.0144201 -0.0161028 -0.0177299 -0.0192987 -0.0208072 
-0.0222542 -0.0236389 -0.024961 -0.0262203 -0.0274169 
-0.0285514 -0.0296241 -0.0306356 -0.0315864 -0.0324774 
-0.0333092 -0.0340827 -0.0347987 -0.0354578 -0.0360608 
-0.0366082 -0.0371008 -0.0375388 -0.0379224 -0.0382523 
-0.0385292 -0.0387527 -0.0389234 -0.0390416 -0.0391081 
-0.039122 -0.039083 -0.0389912 -0.038847 -0.0386501 
-0.0383997 -0.0380961 -0.0377394 -0.0373289 -0.0368639 
-0.036344 -0.0357687 -0.0351375 -0.0344497 -0.0337046 
-0.0329015 -0.0320397 -0.0311185 -0.0301372 -0.029095 
-0.0279915 -0.026826 -0.0255984 -0.0243076 -0.0229527 
-0.0215352 -0.0200611 -0.0185339 -0.016939 -0.0152766 
-0.0135637 -0.0118029 -0.00999546 -0.0081463 -0.00625926 
-0.00434895 -0.00234389 -0.00231293 -0.00428098 -0.00622341 
-0.00812594 -0.00998686 -0.0117987 -0.0135591 -0.0152682 
-0.0169235 -0.0185217 -0.0200606 -0.0215384 -0.0229544 
-0.0243078 -0.0255984 -0.0268264 -0.0279919 -0.0290954 
-0.0301374 -0.0311185 -0.0320394 -0.0329007 -0.0337032 
-0.0344478 -0.0351353 -0.0357662 -0.0363412 -0.0368612 
-0.0373266 -0.0377372 -0.0380941 -0.0383976 -0.0386478 
-0.0388443 -0.0389891 -0.0390816 -0.0391218 -0.0391093 
-0.0390438 -0.0389257 -0.0387553 -0.0385317 -0.0382547 
-0.0379246 -0.037541 -0.0371034 -0.036611 -0.0360635 
-0.0354603 -0.0348009 -0.0340845 -0.0333105 -0.0324781 
-0.0315867 -0.0306355 -0.0296239 -0.0285511 -0.0274166 
-0.02622 -0.024961 -0.0236383 -0.0222516 -0.0208049 
-0.0193044 -0.0177454 -0.0161144 -0.0144256 -0.0126888 
-0.0109043 -0.00907544 -0.0072077 -0.00530651 -0.00337563 
-0.00182959 -0.00187111 -0.00179948 -0.00173433 -0.00171109 
-0.00171482 -0.00172413 -0.00173088 -0.00173383 -0.00173424 
-0.00173364 -0.00173298 -0.0017326 -0.00173245 -0.00173237 
-0.0017323 -0.00173221 -0.00173211 -0.00173206 -0.00173206 
-0.00173209 -0.00173209 -0.00173188 -0.00173119 -0.00172977 
-0.00172774 -0.00172597 -0.00172645 -0.00173204 -0.00174619 
-0.00177344 -0.00181745 -0.0121916 -0.00277036 -0.00373493 
-0.00470163 -0.00566652 -0.00662784 -0.00758323 -0.00852979 
-0.00946477 -0.0103894 -0.0130596 -0.0147071 -0.0162137 
-0.0175598 -0.01873 -0.019714 -0.0205035 -0.0210898 
-0.0214675 -0.0216328 -0.0215831 -0.0213184 -0.020842 
-0.0201595 -0.0192769 -0.0182014 -0.0169431 -0.0155154 
-0.0139335 -0.012214 -0.0103743 -0.008434 -0.00641331 
-0.00432395 -0.00218348 -0.00164317 -0.00173412 -0.00179192 
-0.00176133 -0.00172564 -0.00171087 -0.00170761 -0.00170452 
-0.00170031 -0.00169615 -0.0016929 -0.00169078 -0.00168953 
-0.00168886 -0.00168853 -0.00168841 -0.0016884 -0.00168842 
-0.00168841 -0.00168833 -0.00168823 -0.00168825 -0.00168843 
-0.00168832 -0.0016867 -0.00168202 -0.00167373 -0.00166384 
-0.00165633 -0.00164998 -0.00163645 -0.00162959 -0.00182062 
-0.00552409 -0.0361326 -0.00457754 -0.00923862 -0.011017 
-0.00832805 -0.012741 -0.010135 -0.0144167 -0.0118854 
-0.0160436 -0.0135847 -0.0176172 -0.0152365 -0.0191348 
-0.0168372 -0.0205947 -0.0183831 -0.0219956 -0.0198721 
-0.0233366 -0.0213026 -0.0246173 -0.0226736 -0.0258376 
-0.0239845 -0.0269974 -0.025235 -0.028097 -0.0264251 
-0.0291367 -0.0275547 -0.0301169 -0.0286243 -0.0310379 
-0.0296342 -0.0319005 -0.0305847 -0.0327052 -0.0314765 
-0.0334531 -0.03231 -0.0341449 -0.0330862 -0.0347809 
-0.033806 -0.0353623 -0.0344698 -0.0358892 -0.00359109 
-0.0356324 -0.036782 -0.0371477 -0.0374607 -0.0377216 
-0.0379287 -0.0380849 -0.0381894 -0.0382432 -0.0382448 
-0.0381932 -0.0380892 -0.0379341 -0.0377264 -0.0374651 
-0.0371516 -0.036786 -0.0363674 -0.0358947 -0.0353676 
-0.0347861 -0.0341494 -0.0334567 -0.0327078 -0.0319019 
-0.0310383 -0.0301165 -0.0291361 -0.0280961 -0.0269963 
-0.0258367 -0.0246172 -0.0233362 -0.0219917 -0.0205871 
-0.0191367 -0.0176458 -0.0160747 -0.0144329 -0.0127495 
-0.0110237 -0.00925559 -0.0074497 -0.00559982 -0.00374728 
-0.00282091 -0.0369715 -0.0350785 -0.00740592 -0.0138994 
-0.0154795 -0.016908 -0.018168 -0.0192463 -0.020134 
-0.0208231 -0.0213055 -0.0215775 -0.0216355 -0.0214781 
-0.021107 -0.0205269 -0.0197436 -0.0187635 -0.0175948 
-0.0162486 -0.0147421 -0.013089 -0.0113073 -0.00941481 
-0.00743236 -0.00537817 -0.00324705 -0.0365792 -0.0112995 
-0.00260777 -0.00647122 -0.0363628 -0.0373104 -0.0375977 
-0.0378321 -0.0380128 -0.0381434 -0.0382231 -0.0382509 
-0.0382258 -0.0381479 -0.0380183 -0.0378372 -0.0376026 
-0.0373152 -0.0369757 -0.0365837 -0.0361381 -0.0356382 
-0.035084 -0.034475 -0.0338103 -0.0330897 -0.0323123 
-0.0314776 -0.030585 -0.029634 -0.0286238 -0.0275539 
-0.0264241 -0.0252346 -0.0239845 -0.0226716 -0.0212958 
-0.0198665 -0.0183975 -0.0168716 -0.0152602 -0.0135976 
-0.011893 -0.0101457 -0.00835711 -0.00653156 -0.0046675 
-0.00277598 -0.00261086 -0.00254894 -0.00255795 -0.00257807 
-0.00259304 -0.00260026 -0.00260197 -0.00260115 -0.00259991 
-0.00259911 -0.00259881 -0.00259872 -0.00259863 -0.00259847 
-0.00259828 -0.00259814 -0.0025981 -0.00259821 -0.00259845 
-0.00259869 -0.00259861 -0.00259773 -0.00259569 -0.00259306 
-0.00259219 -0.00259733 -0.00261359 -0.00264536 -0.00269903 
-0.00364251 -0.00459389 -0.00554861 -0.00650518 -0.00746128 
-0.00841411 -0.00936378 -0.00276958 -0.00851668 -0.0358287 
-0.0354011 -0.00403167 -0.0121887 -0.00268439 -0.0025989 
-0.00256765 -0.00256834 -0.00256553 -0.00255875 -0.0025513 
-0.00254523 -0.00254112 -0.00253861 -0.00253718 -0.00253643 
-0.00253611 -0.00253606 -0.00253614 -0.00253621 -0.00253612 
-0.00253586 -0.00253561 -0.00253577 -0.00253641 -0.0025362 
-0.0025321 -0.00252106 -0.00250356 -0.00248653 -0.00248205 
-0.00247752 -0.00244136 -0.00237565 -0.0363692 -0.0371796 
-0.00482427 -0.013105 -0.0230209 -0.00292081 -0.00761965 
-0.0103105 -0.0351668 -0.0369116 -0.00395076 -0.0366664 
-0.0365246 -0.0367957 -0.0356218 -0.0371021 -0.0144297 
-0.00670951 -0.0373366 -0.0373783 -0.0373676 -0.0373034 
-0.0371877 -0.0370224 -0.0368036 -0.0365313 -0.0362086 
-0.0358346 -0.0354083 -0.0349281 -0.0343942 -0.033807 
-0.0331652 -0.0324682 -0.031716 -0.0309078 -0.0300431 
-0.0291216 -0.0281427 -0.0271056 -0.0260106 -0.0248581 
-0.0236481 -0.00577486 -0.0217181 -0.0203517 -0.0049437 
-0.018229 -0.0167865 -0.0152355 -0.0372961 -0.0127939 
-0.0111214 -0.00941287 -0.00766466 -0.00587885 -0.0189415 
-0.011255 -0.016459 -0.0102625 -0.019164 -0.0172021 
-0.020235 -0.0343858 -0.0211065 -0.0360224 -0.02177 
-0.0222179 -0.0224472 -0.00397429 -0.0224535 -0.00615416 
-0.0222356 -0.00825869 -0.0217966 -0.0102911 -0.0211424 
-0.0122284 -0.0202796 -0.0140468 -0.0192139 -0.0157286 
-0.0179531 -0.0172532 -0.0165107 -0.0186061 -0.0149063 
-0.0197712 -0.0131546 -0.020737 -0.011274 -0.0214961 
-0.00928558 -0.0220435 -0.00721455 -0.0223725 -0.00507878 
-0.0224784 -0.0223603 -0.022021 -0.0214653 -0.0148527 
-0.0206957 -0.0197241 -0.0139945 -0.00939781 -0.0119477 
-0.0111117 -0.0135872 -0.0127725 -0.015184 -0.0143913 
-0.0167316 -0.0159642 -0.0182265 -0.0174858 -0.0196669 
-0.0189536 -0.0210513 -0.0203662 -0.0223786 -0.0217222 
-0.0236482 -0.0230207 -0.0248597 -0.0242612 -0.0260127 
-0.0254435 -0.0271074 -0.0265674 -0.0281439 -0.0276329 
-0.0291223 -0.0286404 -0.0300428 -0.0295898 -0.0309058 
-0.0304814 -0.031712 -0.0313159 -0.0324624 -0.0320941 
-0.0331578 -0.0328169 -0.0337984 -0.0334854 -0.0349195 
-0.0340988 -0.0179017 -0.0370128 -0.037244 -0.0373634 
-0.0373796 -0.0373422 -0.0372515 -0.0371111 -0.0369195 
-0.0366735 -0.0363757 -0.0360277 -0.0356277 -0.0351746 
-0.0346674 -0.034107 -0.0334926 -0.0328231 -0.0320987 
-0.0313185 -0.0304821 -0.029589 -0.028639 -0.027631 
-0.0265651 -0.0254412 -0.0242605 -0.0223773 -0.0210423 
-0.0196499 -0.0175132 -0.0160267 -0.0136178 -0.0119617 
-0.0102717 -0.00854281 -0.00678009 -0.00316054 -0.0362022 
-0.0185567 -0.0156753 -0.0174654 -0.0194146 -0.00335281 
-0.00337957 -0.00341942 -0.00344955 -0.00346511 -0.00347011 
-0.0034695 -0.00346739 -0.00346586 -0.00346529 -0.00346524 
-0.00346522 -0.00346501 -0.00346466 -0.00346433 -0.00346414 
-0.0034642 -0.0034646 -0.00346535 -0.00346626 -0.0034667 
-0.0034657 -0.00346268 -0.00345914 -0.00346022 -0.00347375 
-0.00350686 -0.0035641 -0.00349358 -0.00449461 -0.00543081 
-0.00637373 -0.00732293 -0.00827011 -0.0360968 -0.0131022 
-0.0244678 -0.0365029 -0.0121364 -0.0346589 -0.00700034 
-0.00478418 -0.00911885 -0.0111996 -0.01318 -0.0150324 
-0.0159054 -0.0141229 -0.0122042 -0.0101701 -0.00805128 
-0.00587915 -0.00369257 -0.00922522 -0.0207765 -0.00696976 
-0.0166505 -0.00341552 -0.00343968 -0.00344054 -0.00342996 
-0.00341736 -0.00340673 -0.00339929 -0.00339455 -0.00339169 
-0.00339006 -0.00338926 -0.00338903 -0.00338916 -0.00338942 
-0.00338952 -0.0033892 -0.00338845 -0.00338784 -0.00338849 
-0.0033905 -0.00339027 -0.00338053 -0.00335627 -0.00332204 
-0.00329527 -0.00331717 -0.0364816 -0.014047 -0.00392981 
-0.0101875 -0.0152148 -0.0362715 -0.0344405 -0.00351332 
-0.0182151 -0.00782251 -0.0364902 -0.00693964 -0.012015 
-0.0232973 -0.0364005 -0.0182787 -0.0365082 -0.0220692 
-0.036412 -0.0362851 -0.0361108 -0.0358799 -0.0355962 
-0.0352652 -0.0348834 -0.03445 -0.0339623 -0.0334222 
-0.0328295 -0.0321829 -0.0314825 -0.0307267 -0.0299168 
-0.029052 -0.028132 -0.0271554 -0.026122 -0.0250326 
-0.0173357 -0.0214313 -0.0201025 -0.0136333 -0.0238895 
-0.0167379 -0.0364473 -0.0149592 -0.0128275 -0.0159681 
-0.0103769 -0.00870588 -0.00785382 -0.0180227 -0.0111584 
-0.0175308 -0.00526416 -0.01443 -0.0226912 -0.0158353 
-0.0189184 -0.0195735 -0.0166718 -0.0336873 -0.0331207 
-0.0361896 -0.0201782 -0.00507323 -0.0227542 -0.033951 
-0.0224342 -0.0350743 -0.0229559 -0.0232531 -0.0233194 
-0.0231523 -0.0207335 -0.0221315 -0.0212926 -0.0061467 
-0.0202409 -0.0196363 -0.0207939 -0.0217398 -0.0224714 
-0.0229827 -0.0232658 -0.0233161 -0.0231336 -0.021238 
-0.0227234 -0.00953777 -0.0216897 -0.00330424 -0.035869 
-0.00868956 -0.0363419 -0.0111799 -0.0103662 -0.0127788 
-0.0119831 -0.0143441 -0.0135664 -0.0158646 -0.0151105 
-0.0173354 -0.0166063 -0.0187549 -0.0180516 -0.0201214 
-0.0194449 -0.0214336 -0.0207843 -0.0226907 -0.022069 
-0.023892 -0.0232984 -0.0250372 -0.0244717 -0.026126 
-0.0255887 -0.0271584 -0.0266493 -0.0281342 -0.0276534 
-0.0290532 -0.0286008 -0.0299157 -0.0294915 -0.0307224 
-0.030326 -0.0314744 -0.0311051 -0.0321727 -0.0318307 
-0.0328186 -0.0325023 -0.0342023 -0.0348771 -0.0334106 
-0.0357348 -0.0365123 -0.0364577 -0.0363543 -0.0362048 
-0.0360022 -0.0357436 -0.0354363 -0.0350807 -0.0346734 
-0.0342127 -0.0336985 -0.0331325 -0.0325133 -0.0318391 
-0.0311114 -0.0303291 -0.0294918 -0.028599 -0.0276508 
-0.0266453 -0.0255845 -0.0060371 -0.0187174 -0.011198 
-0.00954878 -0.0189818 -0.0354281 -0.0359905 -0.00423344 
-0.0220896 -0.0355872 -0.0184973 -0.00885166 -0.0042399 
-0.00429586 -0.00432493 -0.00433769 -0.00433873 -0.00433556 
-0.00433276 -0.00433173 -0.00433188 -0.00433217 -0.00433203 
-0.00433148 -0.00433081 -0.00433028 -0.00433009 -0.00433043 
-0.00433151 -0.00433345 -0.00433588 -0.00433753 -0.00433625 
-0.00433073 -0.00432422 -0.00432745 -0.00435367 -0.00441155 
-0.0337196 -0.0353605 -0.00904582 -0.00532014 -0.00623621 
-0.00716606 -0.00810291 -0.0206079 -0.0150219 -0.0177712 
-0.00965499 -0.0185705 -0.0280656 -0.0104538 -0.0045147 
-0.0346656 -0.0271478 -0.00892068 -0.0352577 -0.0110861 
-0.013164 -0.015119 -0.0160425 -0.025666 -0.014158 
-0.0355717 -0.00670942 -0.0222523 -0.0352765 -0.00432199 
-0.00433806 -0.00431972 -0.00429878 -0.00428078 -0.00426794 
-0.00425939 -0.00425392 -0.00425057 -0.0042487 -0.00424793 
-0.00424798 -0.00424853 -0.00424912 -0.00424918 -0.00424821 
-0.00424626 -0.00424477 -0.004247 -0.00425301 -0.00425251 
-0.00422908 -0.00417833 -0.00411618 -0.00407242 -0.0356243 
-0.0350841 -0.0140497 -0.0130458 -0.0301261 -0.0100158 
-0.010012 -0.0121387 -0.0217568 -0.00636012 -0.0206816 
-0.0355004 -0.0356463 -0.0199553 -0.0177807 -0.0193246 
-0.0354548 -0.0354357 -0.0351999 -0.0352995 -0.0348109 
-0.0344963 -0.0341338 -0.0339333 -0.0356416 -0.0285049 
-0.0329974 -0.0324516 -0.031854 -0.0312028 -0.0327306 
-0.0246101 -0.00479351 -0.0293416 -0.0289298 -0.0112546 
-0.0276137 -0.0261733 -0.0297409 -0.0164492 -0.018476 
-0.0170972 -0.0332514 -0.0356121 -0.0169267 -0.0200284 
-0.021208 -0.0304987 -0.035637 -0.00781703 -0.0159555 
-0.00715834 -0.022694 -0.00420516 -0.0192514 -0.0230802 
-0.0337104 -0.0176958 -0.0341284 -0.0339267 -0.0355539 
-0.00449199 -0.0120225 -0.0212812 -0.0329836 -0.0324364 
-0.0238934 -0.00559483 -0.0157939 -0.0218255 -0.00630341 
-0.0227465 -0.0234485 -0.0239204 -0.0241543 -0.0234083 
-0.0236802 -0.0237141 -0.0229307 -0.0315205 -0.0321444 
-0.00884594 -0.0211302 -0.00801209 -0.0334807 -0.0110086 
-0.0217464 -0.0119889 -0.0112145 -0.0135227 -0.0127596 
-0.0150156 -0.0142751 -0.0164608 -0.0157442 -0.0178581 
-0.0171656 -0.0192055 -0.0185382 -0.020501 -0.0198598 
-0.0217442 -0.0211292 -0.0229344 -0.022346 -0.0240705 
-0.0235092 -0.0251523 -0.0246182 -0.0261796 -0.0256728 
-0.0271519 -0.0266726 -0.0280687 -0.0276173 -0.0289297 
-0.0285062 -0.0297357 -0.0293395 -0.0304879 -0.0301188 
-0.0311897 -0.0308452 -0.0344868 -0.0241799 -0.0327165 
-0.0349413 -0.0223456 -0.0104377 -0.0251451 -0.0223143 
-0.0191645 -0.0355181 -0.0353831 -0.0349537 -0.034659 
-0.0343211 -0.0334921 -0.0240628 -0.0321589 -0.0315349 
-0.00555485 -0.0308575 -0.0266675 -0.0054187 -0.0198417 
-0.0231259 -0.0204973 -0.0240677 -0.0235029 -0.0355957 
-0.00416599 -0.0120574 -0.0128655 -0.00718559 -0.00802223 
-0.0351803 -0.0350685 -0.0241447 -0.0343145 -0.0136691 
-0.0144695 -0.0168479 -0.0240492 -0.0346484 -0.00517565 
-0.00520172 -0.00520852 -0.00520445 -0.00519939 -0.00519752 
-0.0051982 -0.00519945 -0.0051998 -0.00519909 -0.00519789 
-0.00519676 -0.00519603 -0.00519597 -0.00519694 -0.00519949 
-0.00520395 -0.00520966 -0.00521377 -0.00521117 -0.00519839 
-0.0051824 -0.00518674 -0.00523362 -0.0342897 -0.0217404 
-0.0305587 -0.00610593 -0.00699652 -0.00408062 -0.0141515 
-0.0179717 -0.0251969 -0.0109359 -0.0196313 -0.00757585 
-0.0256891 -0.0250379 -0.0178896 -0.0150356 -0.0228652 
-0.0120332 -0.00978788 -0.0244285 -0.0237583 -0.0139949 
-0.0246402 -0.0338747 -0.0243873 -0.00526738 -0.0227917 
-0.0344478 -0.0203882 -0.0298777 -0.00644237 -0.0222521 
-0.00965154 -0.0187466 -0.0345548 -0.00982045 -0.0170758 
-0.0151635 -0.00523364 -0.00520043 -0.00517025 -0.00514914 
-0.00513435 -0.00512443 -0.00511787 -0.00511387 -0.00511178 
-0.00511126 -0.00511198 -0.00511339 -0.00511455 -0.00511432 
-0.00511176 -0.00510695 -0.0051033 -0.00511077 -0.00512796 
-0.00512348 -0.00506469 -0.00496825 -0.0275215 -0.0346195 
-0.0107996 -0.0195532 -0.0112115 -0.0203083 -0.0332385 
-0.0210922 -0.0248578 -0.0318392 -0.0250326 -0.033378 
-0.0131068 -0.0097173 -0.0129276 -0.00501353 -0.0314815 
-0.0152272 -0.0210102 -0.0346817 -0.0327663 -0.0343976 
-0.033555 -0.0340223 -0.0337202 -0.00569626 -0.034484 
-0.0236429 -0.0308799 -0.031187 -0.00870088 -0.0175242 
-0.016032 -0.0051184 -0.0147746 -0.0188253 -0.0347336 
-0.0241734 -0.0161396 -0.0237058 -0.0302249 -0.0216577 
-0.023277 -0.0105017 -0.0348006 -0.0248323 -0.0169839 
-0.026168 -0.0240757 -0.0249642 -0.0322907 -0.0118463 
-0.0249797 -0.0246743 -0.00896859 -0.0241209 -0.0233391 
-0.00485677 -0.0223326 -0.0129251 -0.0329775 -0.0347665 
-0.0347417 -0.012717 -0.0322764 -0.00791014 -0.0189107 
-0.0295166 -0.0314634 -0.0104626 -0.0345247 -0.00653573 
-0.00525095 -0.0337083 -0.0298605 -0.00819206 -0.0270839 
-0.00487194 -0.00971948 -0.0346549 -0.00819759 -0.0208146 
-0.0347823 -0.0155879 -0.0305399 -0.0119666 -0.0141837 
-0.0134568 -0.015602 -0.0148984 -0.016976 -0.0162946 
-0.0183032 -0.0176457 -0.0195808 -0.0189483 -0.0208087 
-0.020201 -0.0219863 -0.0214038 -0.0231124 -0.0225559 
-0.0241861 -0.0236558 -0.0252071 -0.0247032 -0.0261751 
-0.0256978 -0.0270888 -0.0266388 -0.0279475 -0.027525 
-0.0287514 -0.0283561 -0.0295035 -0.0291337 -0.0320175 
-0.0331878 -0.0317465 -0.0219826 -0.00895435 -0.018227 
-0.0325355 -0.0341627 -0.0341469 -0.00736534 -0.0283571 
-0.0327557 -0.0266331 -0.0287566 -0.0195711 -0.024692 
-0.0202035 -0.0225466 -0.0231004 -0.0161271 -0.0112972 
-0.0121025 -0.00652922 -0.0137921 -0.0308608 -0.0343637 
-0.0335473 -0.0320329 -0.0333749 -0.0347675 -0.0331849 
-0.0279459 -0.0340108 -0.0317634 -0.0329836 -0.0347803 
-0.034595 -0.00605593 -0.0130088 -0.0228122 -0.00883009 
-0.025794 -0.00608001 -0.00607444 -0.00606491 -0.00606111 
-0.00606283 -0.00606659 -0.00606858 -0.00606806 -0.00606612 
-0.00606398 -0.00606233 -0.00606147 -0.00606176 -0.00606402 
-0.00606953 -0.0060792 -0.00609163 -0.00610044 -0.00609288 
-0.00606 -0.00601788 -0.00602553 -0.0068314 -0.0181325 
-0.0214065 -0.0250772 -0.0291428 -0.0258782 -0.0151668 
-0.024368 -0.00902296 -0.0127401 -0.0259171 -0.0242254 
-0.0247231 -0.0247712 -0.0256037 -0.0302068 -0.034705 
-0.0239109 -0.016064 -0.02512 -0.0253719 -0.00612409 
-0.00607894 -0.00604619 -0.00602125 -0.00600414 -0.00599185 
-0.00598389 -0.0059791 -0.00597694 -0.0059772 -0.00597944 
-0.00598249 -0.00598446 -0.00598327 -0.00597722 -0.00596591 
-0.00595635 -0.00598258 -0.00602989 -0.0059929 -0.0058462 
-0.0190398 -0.0105187 -0.021383 -0.0198228 -0.0325222 
-0.0311686 -0.0139292 -0.00826464 -0.0227228 -0.0256355 
-0.0138805 -0.0238379 -0.0338628 -0.0170783 -0.0168124 
-0.033782 -0.00896575 -0.0335014 -0.00960901 -0.0233085 
-0.0180439 -0.032616 -0.0330843 -0.0247158 -0.00626284 
-0.0299078 -0.0118908 -0.0288995 -0.00735654 -0.0243101 
-0.017184 -0.00569168 -0.0318156 -0.0115975 -0.00588687 
-0.0233926 -0.00847513 -0.0107543 -0.00735509 -0.0232078 
-0.0332328 -0.0342647 -0.0149978 -0.0189589 -0.0141037 
-0.0251929 -0.00973786 -0.0254112 -0.0338523 -0.0207132 
-0.0061814 -0.022081 -0.0258883 -0.0161948 -0.0199013 
-0.0257731 -0.0206304 -0.0149615 -0.0165464 -0.012996 
-0.0221709 -0.0204823 -0.00769413 -0.0305134 -0.0338882 
-0.0313173 -0.0304918 -0.0210464 -0.0214705 -0.0285363 
-0.00950299 -0.010434 -0.00600468 -0.0324374 -0.0157917 
-0.0119219 -0.00970853 -0.0324424 -0.00857106 -0.029224 
-0.0265425 -0.00831378 -0.0336086 -0.0215997 -0.028877 
-0.00760217 -0.0111792 -0.0133677 -0.0126539 -0.0147579 
-0.0140681 -0.0161078 -0.0154379 -0.0174145 -0.016767 
-0.0186732 -0.0180499 -0.0198841 -0.0192845 -0.0210479 
-0.020472 -0.0221629 -0.0216117 -0.0232273 -0.0227015 
-0.0242411 -0.0237406 -0.0252038 -0.024729 -0.0261137 
-0.0256655 -0.0269691 -0.0265482 -0.0277698 -0.0273762 
-0.0339226 -0.0338085 -0.0237224 -0.0329206 -0.0315671 
-0.0172763 -0.00679664 -0.0333548 -0.0327803 -0.0335952 
-0.0295853 -0.03366 -0.0121399 -0.0302173 -0.0320285 
-0.0273754 -0.0333766 -0.0179757 -0.033224 -0.025657 
-0.0277741 -0.0186477 -0.0269655 -0.0105363 -0.0322435 
-0.0315808 -0.0226819 -0.0335361 -0.032769 -0.03375 
-0.0320352 -0.0298839 -0.0326152 -0.0339032 -0.0337156 
-0.0292493 -0.0307968 -0.0339248 -0.0198987 -0.0313305 
-0.0307777 -0.0281611 -0.0281507 -0.0339096 -0.0232648 
-0.0261067 -0.0151287 -0.0267298 -0.00694926 -0.0069302 
-0.00691972 -0.00692225 -0.00693184 -0.00693834 -0.00693914 
-0.00693632 -0.00693256 -0.00692939 -0.0069273 -0.00692641 
-0.00692738 -0.0069321 -0.00694343 -0.0069634 -0.00698936 
-0.00700741 -0.00698359 -0.00689893 -0.00679711 -0.0257477 
-0.0243777 -0.0192134 -0.0201236 -0.024961 -0.0267931 
-0.0329549 -0.0267161 -0.0261269 -0.0162091 -0.024223 
-0.023896 -0.00687707 -0.0139239 -0.0225712 -0.017134 
-0.0257871 -0.026364 -0.0338552 -0.0329345 -0.0324489 
-0.0267971 -0.0244622 -0.0260877 -0.0201317 -0.0231675 
-0.0069591 -0.00692452 -0.00689725 -0.00687444 -0.00685961 
-0.00684982 -0.00684408 -0.00684229 -0.00684456 -0.00684999 
-0.00685588 -0.00685854 -0.00685483 -0.00684205 -0.00681665 
-0.00678849 -0.00688958 -0.00700661 -0.00676064 -0.0209208 
-0.0224745 -0.0336822 -0.00939532 -0.0265724 -0.0295601 
-0.0210018 -0.0318033 -0.0136999 -0.0285196 -0.0308709 
-0.0200548 -0.0310528 -0.0182528 -0.0330539 -0.0289084 
-0.0101494 -0.0263997 -0.0112628 -0.032243 -0.0330369 
-0.0253984 -0.0227581 -0.0218165 -0.0310687 -0.0117172 
-0.0321397 -0.0285808 -0.0253501 -0.0172516 -0.0232578 
-0.0301943 -0.0160534 -0.0192896 -0.00812398 -0.0221454 
-0.0128732 -0.0113321 -0.0330745 -0.0238025 -0.0265984 
-0.0124682 -0.0334564 -0.0248934 -0.0181584 -0.0140153 
-0.0279238 -0.00892807 -0.0149117 -0.010552 -0.00827412 
-0.00695647 -0.0191322 -0.032608 -0.0217253 -0.00719443 
-0.0328126 -0.0255691 -0.00745976 -0.0330746 -0.0327849 
-0.00962153 -0.0147777 -0.00891077 -0.033045 -0.00824295 
-0.0155661 -0.0322915 -0.0303603 -0.0083383 -0.0321279 
-0.0310813 -0.0327603 -0.0206622 -0.0282421 -0.0292229 
-0.0329645 -0.00752224 -0.0111332 -0.0125673 -0.0118664 
-0.0139265 -0.0132514 -0.0152525 -0.0145938 -0.0165393 
-0.0159013 -0.0177787 -0.0171652 -0.0189708 -0.0183803 
-0.0201195 -0.0195506 -0.0212226 -0.0206771 -0.0222767 
-0.0217559 -0.0232818 -0.0227853 -0.0242383 -0.0237662 
-0.0251436 -0.0246976 -0.0259949 -0.025576 -0.0267915 
-0.0264002 -0.0271704 -0.0289392 -0.00701536 -0.0222478 
-0.0163217 -0.0318445 -0.0237466 -0.00762796 -0.0327263 
-0.0328646 -0.0292502 -0.0170326 -0.00976539 -0.0103774 
-0.0324505 -0.0246861 -0.0267941 -0.0130218 -0.0177223 
-0.0259895 -0.00914231 -0.033009 -0.0295488 -0.0315166 
-0.0306273 -0.0326884 -0.0319722 -0.032906 -0.0310924 
-0.0275578 -0.0282766 -0.00708441 -0.0298333 -0.0195791 
-0.0263973 -0.0298108 -0.0325672 -0.0306188 -0.0316835 
-0.0121473 -0.0317014 -0.025135 -0.0276699 -0.0127054 
-0.0077716 -0.0077698 -0.0077904 -0.00780829 -0.00781325 
-0.00780967 -0.00780344 -0.00779778 -0.00779383 -0.00779147 
-0.00779061 -0.00779265 -0.00780181 -0.00782422 -0.007864 
-0.00791725 -0.00795802 -0.00787503 -0.00766982 -0.0319925 
-0.0264271 -0.017279 -0.0276652 -0.0138059 -0.0171609 
-0.0321863 -0.0147817 -0.00873041 -0.0316859 -0.00787801 
-0.019267 -0.00800427 -0.0273662 -0.0275621 -0.0313004 
-0.0320111 -0.0271809 -0.0242719 -0.0279343 -0.0229419 
-0.0254581 -0.00780763 -0.00777074 -0.00774489 -0.00772654 
-0.00771424 -0.00770745 -0.00770722 -0.00771422 -0.00772587 
-0.00773578 -0.00773745 -0.0077282 -0.00770462 -0.00764993 
-0.0249935 -0.0322931 -0.0235817 -0.0212515 -0.0308575 
-0.0221289 -0.0145945 -0.0303512 -0.0182394 -0.0286152 
-0.027395 -0.0300897 -0.0108186 -0.0263981 -0.0328368 
-0.00920658 -0.0295234 -0.0115216 -0.0183339 -0.0313402 
-0.0161825 -0.0310518 -0.0193461 -0.0138892 -0.0275453 
-0.0311907 -0.0255418 -0.0243734 -0.0103421 -0.0228358 
-0.0277098 -0.0202472 -0.00790612 -0.0222945 -0.0248977 
-0.0120722 -0.00783353 -0.0326344 -0.0259573 -0.0220371 
-0.0134304 -0.0271489 -0.0150503 -0.0203199 -0.0211738 
-0.031841 -0.0260134 -0.0227813 -0.00758909 -0.0271124 
-0.0268134 -0.0160187 -0.0330854 -0.0267834 -0.0121175 
-0.0232574 -0.0236892 -0.0113271 -0.00780056 -0.0288493 
-0.0305777 -0.0217987 -0.00798838 -0.030923 -0.008107 
-0.00968833 -0.032168 -0.0285596 -0.0321696 -0.00785207 
-0.0315001 -0.00756056 -0.031349 -0.0197298 -0.0276017 
-0.028588 -0.0301446 -0.0117836 -0.0294021 -0.0278941 
-0.0275374 -0.0261946 -0.0111097 -0.0131038 -0.012445 
-0.0144077 -0.0137587 -0.0156767 -0.0150469 -0.0168983 
-0.0162944 -0.0180693 -0.0174892 -0.0192013 -0.01864 
-0.0202922 -0.0197524 -0.0213352 -0.0208199 -0.0223299 
-0.0218384 -0.0232788 -0.02281 -0.0241792 -0.0237355 
-0.0250255 -0.024609 -0.0258181 -0.0254287 -0.0262037 
-0.0319334 -0.0279756 -0.0291285 -0.0167947 -0.0217272 
-0.0288768 -0.0312995 -0.015363 -0.0318812 -0.0315011 
-0.0301058 -0.0282862 -0.0160944 -0.00902249 -0.0103407 
-0.0237211 -0.0183818 -0.00863208 -0.0190013 -0.0250199 
-0.0211977 -0.0105655 -0.0299325 -0.0318247 -0.0311619 
-0.0320661 -0.0301645 -0.0321979 -0.00954023 -0.0273086 
-0.012977 -0.0282545 -0.0246031 -0.0112737 -0.0317067 
-0.0321307 -0.0308162 -0.0192128 -0.0258179 -0.0296763 
-0.031926 -0.0269504 -0.0319173 -0.028163 -0.00863119 
-0.0086774 -0.00869142 -0.00868772 -0.00867792 -0.00866821 
-0.00866125 -0.00865709 -0.00865474 -0.00865363 -0.00865689 
-0.00867401 -0.00871724 -0.00879355 -0.00890262 -0.00905137 
-0.0171783 -0.022295 -0.0274577 -0.0231691 -0.0129345 
-0.00874432 -0.0213868 -0.0149353 -0.0315319 -0.014633 
-0.0286301 -0.0281922 -0.0319949 -0.0299291 -0.00868926 
-0.0274514 -0.0266315 -0.0240869 -0.00864738 -0.00861432 
-0.0085914 -0.00857557 -0.00856782 -0.0085723 -0.00858979 
-0.0086125 -0.00862548 -0.0086199 -0.00860013 -0.00856195 
-0.0104832 -0.0128879 -0.0307899 -0.00841322 -0.0286204 