
TITLE     = "DG2D to Tecplot"
VARIABLES = "X"
"Y"
"RHO"
"U"
"V"
"VELOCITY_MAG"
"P"
"T"
"THETA1"
"THETA2"
ZONE T="ZONE 1"
STRANDID=0
ZONETYPE=FEQuadrilateral
DATAPACKING=BLOCK
VARLOCATION=([3-10]=CELLCENTERED)
DT=(SINGLE SINGLE SINGLE SINGLE SINGLE SINGLE SINGLE SINGLE SINGLE SINGLE)

Nodes=1152, Elements=2176
0.02 0.4 -1.77463e-15 -1.06947e-14 
-1.07881e-14 -1.78819e-15 -0.02 -0.4 0.0228636 
0.0263654 0.0306476 0.0358839 0.0422872 0.0501175 
0.0596926 0.0714015 0.0857197 0.103229 0.124639 
0.150821 0.182838 0.221989 0.269865 0.328409 
0.0199037 0.0196157 0.0191388 0.0184776 0.0176384 
0.0166294 0.0154602 0.0141421 0.0126879 0.0111114 
0.00942793 0.00765367 0.00580569 0.00390181 0.00196034 
-2.2712e-15 -2.27081e-15 -2.27033e-15 -2.26975e-15 -2.26904e-15 
-2.26817e-15 -2.26711e-15 -2.26581e-15 -2.26422e-15 -2.26228e-15 
-2.2599e-15 -2.25699e-15 -2.25344e-15 -2.24909e-15 -2.24378e-15 
-2.23728e-15 0.398074 0.392314 0.382776 0.369552 
0.352769 0.332588 0.309204 0.282843 0.253757 
0.222228 0.188559 0.153073 0.116114 0.0780361 
0.0392069 0.0392069 0.0780361 0.116114 0.153073 
0.188559 0.222228 0.253757 0.282843 0.309204 
0.332588 0.352769 0.369552 0.382776 0.392314 
0.398074 -2.3102e-15 -2.3037e-15 -2.29838e-15 -2.29404e-15 
-2.29048e-15 -2.28757e-15 -2.2852e-15 -2.28325e-15 -2.28166e-15 
-2.28036e-15 -2.2793e-15 -2.27843e-15 -2.27772e-15 -2.27714e-15 
-2.27666e-15 -2.27628e-15 0.00196034 0.00390181 0.00580569 
0.00765367 0.00942793 0.0111114 0.0126879 0.0141421 
0.0154602 0.0166294 0.0176384 0.0184776 0.0191388 
0.0196157 0.0199037 -0.00196034 -0.00390181 -0.00580569 
-0.00765367 -0.00942793 -0.0111114 -0.0126879 -0.0141421 
-0.0154602 -0.0166294 -0.0176384 -0.0184776 -0.0191388 
-0.0196157 -0.0199037 -0.328409 -0.269865 -0.221989 
-0.182838 -0.150821 -0.124639 -0.103229 -0.0857197 
-0.0714015 -0.0596926 -0.0501175 -0.0422872 -0.0358839 
-0.0306476 -0.0263654 -0.0228636 -0.0392069 -0.0780361 
-0.116114 -0.153073 -0.188559 -0.222228 -0.253757 
-0.282843 -0.309204 -0.332588 -0.352769 -0.369552 
-0.382776 -0.392314 -0.398074 -0.398074 -0.392314 
-0.382776 -0.369552 -0.352769 -0.332588 -0.309204 
-0.282843 -0.253757 -0.222228 -0.188559 -0.153073 
-0.116114 -0.0780361 -0.0392069 -0.0199037 -0.0196157 
-0.0191388 -0.0184776 -0.0176384 -0.0166294 -0.0154602 
-0.0141421 -0.0126879 -0.0111114 -0.00942793 -0.00765367 
-0.00580569 -0.00390181 -0.00196034 0.0227535 0.0224243 
0.0218791 0.0211232 0.0201639 0.0190104 0.0176738 
0.016167 0.0145045 0.0127024 0.0107778 0.00874953 
0.00663696 0.00446047 0.00224103 0.0262385 0.0258588 
0.0252301 0.0243585 0.0232522 0.021922 0.0203807 
0.0186432 0.016726 0.0146478 0.0124286 0.0100896 
0.00765348 0.00514364 0.00258426 0.0305 0.0300587 
0.0293279 0.0283146 0.0270287 0.0254825 0.0236909 
0.0216711 0.0194426 0.0170269 0.0144472 0.0117283 
0.00889652 0.00597904 0.00300399 0.0357112 0.0351944 
0.0343388 0.0331524 0.0316468 0.0298364 0.0277387 
0.0253738 0.0227645 0.019936 0.0169156 0.0137322 
0.0104166 0.00700061 0.00351724 0.0420836 0.0414747 
0.0404664 0.0390683 0.037294 0.0351605 0.0326885 
0.0299016 0.0268267 0.0234935 0.0199341 0.0161826 
0.0122753 0.00824983 0.00414487 0.0498761 0.0491545 
0.0479594 0.0463025 0.0441996 0.0416711 0.0387413 
0.0354384 0.0317942 0.0278438 0.0236252 0.0191791 
0.0145483 0.00977743 0.00491237 0.0594052 0.0585456 
0.0571223 0.0551488 0.0526442 0.0496326 0.046143 
0.042209 0.0378686 0.0331634 0.0281389 0.0228434 
0.0173278 0.0116454 0.0058509 0.0710577 0.0700296 
0.068327 0.0659664 0.0629705 0.0593682 0.0551941 
0.0504885 0.0452966 0.0396686 0.0336584 0.0273242 
0.0207268 0.0139297 0.00699857 0.0853069 0.0840726 
0.0820286 0.0791947 0.075598 0.0712733 0.0662622 
0.060613 0.05438 0.0476233 0.040408 0.0328035 
0.0248831 0.0167231 0.008402 0.102732 0.101245 
0.0987836 0.0953708 0.0910395 0.0858315 0.0797968 
0.0729937 0.0654875 0.0573507 0.0486616 0.0395039 
0.0299657 0.0201389 0.0101182 0.124039 0.122244 
0.119272 0.115152 0.109922 0.103634 0.0963475 
0.0881333 0.0790703 0.0692459 0.0587546 0.0476974 
0.0361809 0.0243159 0.0122168 0.150095 0.147923 
0.144327 0.139341 0.133012 0.125403 0.116586 
0.106647 0.09568 0.0837918 0.0710966 0.0577168 
0.0437811 0.0294238 0.0147831 0.181957 0.179324 
0.174965 0.16892 0.161248 0.152024 0.141335 
0.129286 0.115991 0.101579 0.0861891 0.0699689 
0.053075 0.0356699 0.0179212 0.22092 0.217723 
0.21243 0.205091 0.195777 0.184577 0.1716 
0.15697 0.140828 0.12333 0.104645 0.0849514 
0.0644399 0.0433079 0.0217587 0.268565 0.264679 
0.258244 0.249322 0.237999 0.224384 0.208608 
0.190823 0.1712 0.149929 0.127213 0.103273 
0.0783375 0.052648 0.0264513 0.326828 0.322099 
0.314268 0.30341 0.289631 0.273062 0.253864 
0.23222 0.208341 0.182454 0.154811 0.125677 
0.0953321 0.0640694 0.0321897 0.0321897 0.0264513 
0.0217587 0.0179212 0.0147831 0.0122168 0.0101182 
0.008402 0.00699857 0.0058509 0.00491237 0.00414487 
0.00351724 0.00300399 0.00258426 0.00224103 0.0640694 
0.052648 0.0433079 0.0356699 0.0294238 0.0243159 
0.0201389 0.0167231 0.0139297 0.0116454 0.00977743 
0.00824983 0.00700061 0.00597904 0.00514364 0.00446047 
0.0953321 0.0783375 0.0644399 0.053075 0.0437811 
0.0361809 0.0299657 0.0248831 0.0207268 0.0173278 
0.0145483 0.0122753 0.0104166 0.00889652 0.00765348 
0.00663696 0.125677 0.103273 0.0849514 0.0699689 
0.0577168 0.0476974 0.0395039 0.0328035 0.0273242 
0.0228434 0.0191791 0.0161826 0.0137322 0.0117283 
0.0100896 0.00874953 0.154811 0.127213 0.104645 
0.0861891 0.0710966 0.0587546 0.0486616 0.040408 
0.0336584 0.0281389 0.0236252 0.0199341 0.0169156 
0.0144472 0.0124286 0.0107778 0.182454 0.149929 
0.12333 0.101579 0.0837918 0.0692459 0.0573507 
0.0476233 0.0396686 0.0331634 0.0278438 0.0234935 
0.019936 0.0170269 0.0146478 0.0127024 0.208341 
0.1712 0.140828 0.115991 0.09568 0.0790703 
0.0654875 0.05438 0.0452966 0.0378686 0.0317942 
0.0268267 0.0227645 0.0194426 0.016726 0.0145045 
0.23222 0.190823 0.15697 0.129286 0.106647 
0.0881333 0.0729937 0.060613 0.0504885 0.042209 
0.0354384 0.0299016 0.0253738 0.0216711 0.0186432 
0.016167 0.253864 0.208608 0.1716 0.141335 
0.116586 0.0963475 0.0797968 0.0662622 0.0551941 
0.046143 0.0387413 0.0326885 0.0277387 0.0236909 
0.0203807 0.0176738 0.273062 0.224384 0.184577 
0.152024 0.125403 0.103634 0.0858315 0.0712733 
0.0593682 0.0496326 0.0416711 0.0351605 0.0298364 
0.0254825 0.021922 0.0190104 0.289631 0.237999 
0.195777 0.161248 0.133012 0.109922 0.0910395 
0.075598 0.0629705 0.0526442 0.0441996 0.037294 
0.0316468 0.0270287 0.0232522 0.0201639 0.30341 
0.249322 0.205091 0.16892 0.139341 0.115152 
0.0953708 0.0791947 0.0659664 0.0551488 0.0463025 
0.0390683 0.0331524 0.0283146 0.0243585 0.0211232 
0.314268 0.258244 0.21243 0.174965 0.144327 
0.119272 0.0987836 0.0820286 0.068327 0.0571223 
0.0479594 0.0404664 0.0343388 0.0293279 0.0252301 
0.0218791 0.322099 0.264679 0.217723 0.179324 
0.147923 0.122244 0.101245 0.0840726 0.0700296 
0.0585456 0.0491545 0.0414747 0.0351944 0.0300587 
0.0258588 0.0224243 0.326828 0.268565 0.22092 
0.181957 0.150095 0.124039 0.102732 0.0853069 
0.0710577 0.0594052 0.0498761 0.0420836 0.0357112 
0.0305 0.0262385 0.0227535 -0.00224103 -0.00446047 
-0.00663696 -0.00874953 -0.0107778 -0.0127024 -0.0145045 
-0.016167 -0.0176738 -0.0190104 -0.0201639 -0.0211232 
-0.0218791 -0.0224243 -0.0227535 -0.00258426 -0.00514364 
-0.00765348 -0.0100896 -0.0124286 -0.0146478 -0.016726 
-0.0186432 -0.0203807 -0.021922 -0.0232522 -0.0243585 
-0.0252301 -0.0258588 -0.0262385 -0.00300399 -0.00597904 
-0.00889652 -0.0117283 -0.0144472 -0.0170269 -0.0194426 
-0.0216711 -0.0236909 -0.0254825 -0.0270287 -0.0283146 
-0.0293279 -0.0300587 -0.0305 -0.00351724 -0.00700061 
-0.0104166 -0.0137322 -0.0169156 -0.019936 -0.0227645 
-0.0253738 -0.0277387 -0.0298364 -0.0316468 -0.0331524 
-0.0343388 -0.0351944 -0.0357112 -0.00414487 -0.00824983 
-0.0122753 -0.0161826 -0.0199341 -0.0234935 -0.0268267 
-0.0299016 -0.0326885 -0.0351605 -0.037294 -0.0390683 
-0.0404664 -0.0414747 -0.0420836 -0.00491237 -0.00977743 
-0.0145483 -0.0191791 -0.0236252 -0.0278438 -0.0317942 
-0.0354384 -0.0387413 -0.0416711 -0.0441996 -0.0463025 
-0.0479594 -0.0491545 -0.0498761 -0.0058509 -0.0116454 
-0.0173278 -0.0228434 -0.0281389 -0.0331634 -0.0378686 
-0.042209 -0.046143 -0.0496326 -0.0526442 -0.0551488 
-0.0571223 -0.0585456 -0.0594052 -0.00699857 -0.0139297 
-0.0207268 -0.0273242 -0.0336584 -0.0396686 -0.0452966 
-0.0504885 -0.0551941 -0.0593682 -0.0629705 -0.0659664 
-0.068327 -0.0700296 -0.0710577 -0.008402 -0.0167231 
-0.0248831 -0.0328035 -0.040408 -0.0476233 -0.05438 
-0.060613 -0.0662622 -0.0712733 -0.075598 -0.0791947 
-0.0820286 -0.0840726 -0.0853069 -0.0101182 -0.0201389 
-0.0299657 -0.0395039 -0.0486616 -0.0573507 -0.0654875 
-0.0729937 -0.0797968 -0.0858315 -0.0910395 -0.0953708 
-0.0987836 -0.101245 -0.102732 -0.0122168 -0.0243159 
-0.0361809 -0.0476974 -0.0587546 -0.0692459 -0.0790703 
-0.0881333 -0.0963475 -0.103634 -0.109922 -0.115152 
-0.119272 -0.122244 -0.124039 -0.0147831 -0.0294238 
-0.0437811 -0.0577168 -0.0710966 -0.0837918 -0.09568 
-0.106647 -0.116586 -0.125403 -0.133012 -0.139341 
-0.144327 -0.147923 -0.150095 -0.0179212 -0.0356699 
-0.053075 -0.0699689 -0.0861891 -0.101579 -0.115991 
-0.129286 -0.141335 -0.152024 -0.161248 -0.16892 
-0.174965 -0.179324 -0.181957 -0.0217587 -0.0433079 
-0.0644399 -0.0849514 -0.104645 -0.12333 -0.140828 
-0.15697 -0.1716 -0.184577 -0.195777 -0.205091 
-0.21243 -0.217723 -0.22092 -0.0264513 -0.052648 
-0.0783375 -0.103273 -0.127213 -0.149929 -0.1712 
-0.190823 -0.208608 -0.224384 -0.237999 -0.249322 
-0.258244 -0.264679 -0.268565 -0.0321897 -0.0640694 
-0.0953321 -0.125677 -0.154811 -0.182454 -0.208341 
-0.23222 -0.253864 -0.273062 -0.289631 -0.30341 
-0.314268 -0.322099 -0.326828 -0.326828 -0.268565 
-0.22092 -0.181957 -0.150095 -0.124039 -0.102732 
-0.0853069 -0.0710577 -0.0594052 -0.0498761 -0.0420836 
-0.0357112 -0.0305 -0.0262385 -0.0227535 -0.322099 
-0.264679 -0.217723 -0.179324 -0.147923 -0.122244 
-0.101245 -0.0840726 -0.0700296 -0.0585456 -0.0491545 
-0.0414747 -0.0351944 -0.0300587 -0.0258588 -0.0224243 
-0.314268 -0.258244 -0.21243 -0.174965 -0.144327 
-0.119272 -0.0987836 -0.0820286 -0.068327 -0.0571223 
-0.0479594 -0.0404664 -0.0343388 -0.0293279 -0.0252301 
-0.0218791 -0.30341 -0.249322 -0.205091 -0.16892 
-0.139341 -0.115152 -0.0953708 -0.0791947 -0.0659664 
-0.0551488 -0.0463025 -0.0390683 -0.0331524 -0.0283146 
-0.0243585 -0.0211232 -0.289631 -0.237999 -0.195777 
-0.161248 -0.133012 -0.109922 -0.0910395 -0.075598 
-0.0629705 -0.0526442 -0.0441996 -0.037294 -0.0316468 
-0.0270287 -0.0232522 -0.0201639 -0.273062 -0.224384 
-0.184577 -0.152024 -0.125403 -0.103634 -0.0858315 
-0.0712733 -0.0593682 -0.0496326 -0.0416711 -0.0351605 
-0.0298364 -0.0254825 -0.021922 -0.0190104 -0.253864 
-0.208608 -0.1716 -0.141335 -0.116586 -0.0963475 
-0.0797968 -0.0662622 -0.0551941 -0.046143 -0.0387413 
-0.0326885 -0.0277387 -0.0236909 -0.0203807 -0.0176738 
-0.23222 -0.190823 -0.15697 -0.129286 -0.106647 
-0.0881333 -0.0729937 -0.060613 -0.0504885 -0.042209 
-0.0354384 -0.0299016 -0.0253738 -0.0216711 -0.0186432 
-0.016167 -0.208341 -0.1712 -0.140828 -0.115991 
-0.09568 -0.0790703 -0.0654875 -0.05438 -0.0452966 
-0.0378686 -0.0317942 -0.0268267 -0.0227645 -0.0194426 
-0.016726 -0.0145045 -0.182454 -0.149929 -0.12333 
-0.101579 -0.0837918 -0.0692459 -0.0573507 -0.0476233 
-0.0396686 -0.0331634 -0.0278438 -0.0234935 -0.019936 
-0.0170269 -0.0146478 -0.0127024 -0.154811 -0.127213 
-0.104645 -0.0861891 -0.0710966 -0.0587546 -0.0486616 
-0.040408 -0.0336584 -0.0281389 -0.0236252 -0.0199341 
-0.0169156 -0.0144472 -0.0124286 -0.0107778 -0.125677 
-0.103273 -0.0849514 -0.0699689 -0.0577168 -0.0476974 
-0.0395039 -0.0328035 -0.0273242 -0.0228434 -0.0191791 
-0.0161826 -0.0137322 -0.0117283 -0.0100896 -0.00874953 
-0.0953321 -0.0783375 -0.0644399 -0.053075 -0.0437811 
-0.0361809 -0.0299657 -0.0248831 -0.0207268 -0.0173278 
-0.0145483 -0.0122753 -0.0104166 -0.00889652 -0.00765348 
-0.00663696 -0.0640694 -0.052648 -0.0433079 -0.0356699 
-0.0294238 -0.0243159 -0.0201389 -0.0167231 -0.0139297 
-0.0116454 -0.00977743 -0.00824983 -0.00700061 -0.00597904 
-0.00514364 -0.00446047 -0.0321897 -0.0264513 -0.0217587 
-0.0179212 -0.0147831 -0.0122168 -0.0101182 -0.008402 
-0.00699857 -0.0058509 -0.00491237 -0.00414487 -0.00351724 
-0.00300399 -0.00258426 -0.00224103 
0 0 0.02 0.4 
-0.4 -0.02 1.7465e-15 1.17307e-14 2.27374e-15 
2.27374e-15 2.27374e-15 2.27374e-15 2.27374e-15 2.27374e-15 
2.27374e-15 2.27374e-15 2.27374e-15 2.27374e-15 2.27374e-15 
2.27374e-15 2.27374e-15 2.27374e-15 2.27374e-15 2.27374e-15 
0.00196034 0.00390181 0.00580569 0.00765367 0.00942793 
0.0111114 0.0126879 0.0141421 0.0154602 0.0166294 
0.0176384 0.0184776 0.0191388 0.0196157 0.0199037 
0.0228636 0.0263654 0.0306476 0.0358839 0.0422872 
0.0501175 0.0596926 0.0714015 0.0857197 0.103229 
0.124639 0.150821 0.182838 0.221989 0.269865 
0.328409 0.0392069 0.0780361 0.116114 0.153073 
0.188559 0.222228 0.253757 0.282843 0.309204 
0.332588 0.352769 0.369552 0.382776 0.392314 
0.398074 -0.398074 -0.392314 -0.382776 -0.369552 
-0.352769 -0.332588 -0.309204 -0.282843 -0.253757 
-0.222228 -0.188559 -0.153073 -0.116114 -0.0780361 
-0.0392069 -0.328409 -0.269865 -0.221989 -0.182838 
-0.150821 -0.124639 -0.103229 -0.0857197 -0.0714015 
-0.0596926 -0.0501175 -0.0422872 -0.0358839 -0.0306476 
-0.0263654 -0.0228636 -0.0199037 -0.0196157 -0.0191388 
-0.0184776 -0.0176384 -0.0166294 -0.0154602 -0.0141421 
-0.0126879 -0.0111114 -0.00942793 -0.00765367 -0.00580569 
-0.00390181 -0.00196034 0.0199037 0.0196157 0.0191388 
0.0184776 0.0176384 0.0166294 0.0154602 0.0141421 
0.0126879 0.0111114 0.00942793 0.00765367 0.00580569 
0.00390181 0.00196034 2.27374e-15 2.27374e-15 2.27374e-15 
2.27374e-15 2.27374e-15 2.27374e-15 2.27374e-15 2.27374e-15 
2.27374e-15 2.27374e-15 2.27374e-15 2.27374e-15 2.27374e-15 
2.27374e-15 2.27374e-15 2.27374e-15 0.398074 0.392314 
0.382776 0.369552 0.352769 0.332588 0.309204 
0.282843 0.253757 0.222228 0.188559 0.153073 
0.116114 0.0780361 0.0392069 -0.0392069 -0.0780361 
-0.116114 -0.153073 -0.188559 -0.222228 -0.253757 
-0.282843 -0.309204 -0.332588 -0.352769 -0.369552 
-0.382776 -0.392314 -0.398074 -0.00196034 -0.00390181 
-0.00580569 -0.00765367 -0.00942793 -0.0111114 -0.0126879 
-0.0141421 -0.0154602 -0.0166294 -0.0176384 -0.0184776 
-0.0191388 -0.0196157 -0.0199037 0.00224103 0.00446047 
0.00663696 0.00874953 0.0107778 0.0127024 0.0145045 
0.016167 0.0176738 0.0190104 0.0201639 0.0211232 
0.0218791 0.0224243 0.0227535 0.00258426 0.00514364 
0.00765348 0.0100896 0.0124286 0.0146478 0.016726 
0.0186432 0.0203807 0.021922 0.0232522 0.0243585 
0.0252301 0.0258588 0.0262385 0.00300399 0.00597904 
0.00889652 0.0117283 0.0144472 0.0170269 0.0194426 
0.0216711 0.0236909 0.0254825 0.0270287 0.0283146 
0.0293279 0.0300587 0.0305 0.00351724 0.00700061 
0.0104166 0.0137322 0.0169156 0.019936 0.0227645 
0.0253738 0.0277387 0.0298364 0.0316468 0.0331524 
0.0343388 0.0351944 0.0357112 0.00414487 0.00824983 
0.0122753 0.0161826 0.0199341 0.0234935 0.0268267 
0.0299016 0.0326885 0.0351605 0.037294 0.0390683 
0.0404664 0.0414747 0.0420836 0.00491237 0.00977743 
0.0145483 0.0191791 0.0236252 0.0278438 0.0317942 
0.0354384 0.0387413 0.0416711 0.0441996 0.0463025 
0.0479594 0.0491545 0.0498761 0.0058509 0.0116454 
0.0173278 0.0228434 0.0281389 0.0331634 0.0378686 
0.042209 0.046143 0.0496326 0.0526442 0.0551488 
0.0571223 0.0585456 0.0594052 0.00699857 0.0139297 
0.0207268 0.0273242 0.0336584 0.0396686 0.0452966 
0.0504885 0.0551941 0.0593682 0.0629705 0.0659664 
0.068327 0.0700296 0.0710577 0.008402 0.0167231 
0.0248831 0.0328035 0.040408 0.0476233 0.05438 
0.060613 0.0662622 0.0712733 0.075598 0.0791947 
0.0820286 0.0840726 0.0853069 0.0101182 0.0201389 
0.0299657 0.0395039 0.0486616 0.0573507 0.0654875 
0.0729937 0.0797968 0.0858315 0.0910395 0.0953708 
0.0987836 0.101245 0.102732 0.0122168 0.0243159 
0.0361809 0.0476974 0.0587546 0.0692459 0.0790703 
0.0881333 0.0963475 0.103634 0.109922 0.115152 
0.119272 0.122244 0.124039 0.0147831 0.0294238 
0.0437811 0.0577168 0.0710966 0.0837918 0.09568 
0.106647 0.116586 0.125403 0.133012 0.139341 
0.144327 0.147923 0.150095 0.0179212 0.0356699 
0.053075 0.0699689 0.0861891 0.101579 0.115991 
0.129286 0.141335 0.152024 0.161248 0.16892 
0.174965 0.179324 0.181957 0.0217587 0.0433079 
0.0644399 0.0849514 0.104645 0.12333 0.140828 
0.15697 0.1716 0.184577 0.195777 0.205091 
0.21243 0.217723 0.22092 0.0264513 0.052648 
0.0783375 0.103273 0.127213 0.149929 0.1712 
0.190823 0.208608 0.224384 0.237999 0.249322 
0.258244 0.264679 0.268565 0.0321897 0.0640694 
0.0953321 0.125677 0.154811 0.182454 0.208341 
0.23222 0.253864 0.273062 0.289631 0.30341 
0.314268 0.322099 0.326828 -0.326828 -0.268565 
-0.22092 -0.181957 -0.150095 -0.124039 -0.102732 
-0.0853069 -0.0710577 -0.0594052 -0.0498761 -0.0420836 
-0.0357112 -0.0305 -0.0262385 -0.0227535 -0.322099 
-0.264679 -0.217723 -0.179324 -0.147923 -0.122244 
-0.101245 -0.0840726 -0.0700296 -0.0585456 -0.0491545 
-0.0414747 -0.0351944 -0.0300587 -0.0258588 -0.0224243 
-0.314268 -0.258244 -0.21243 -0.174965 -0.144327 
-0.119272 -0.0987836 -0.0820286 -0.068327 -0.0571223 
-0.0479594 -0.0404664 -0.0343388 -0.0293279 -0.0252301 
-0.0218791 -0.30341 -0.249322 -0.205091 -0.16892 
-0.139341 -0.115152 -0.0953708 -0.0791947 -0.0659664 
-0.0551488 -0.0463025 -0.0390683 -0.0331524 -0.0283146 
-0.0243585 -0.0211232 -0.289631 -0.237999 -0.195777 
-0.161248 -0.133012 -0.109922 -0.0910395 -0.075598 
-0.0629705 -0.0526442 -0.0441996 -0.037294 -0.0316468 
-0.0270287 -0.0232522 -0.0201639 -0.273062 -0.224384 
-0.184577 -0.152024 -0.125403 -0.103634 -0.0858315 
-0.0712733 -0.0593682 -0.0496326 -0.0416711 -0.0351605 
-0.0298364 -0.0254825 -0.021922 -0.0190104 -0.253864 
-0.208608 -0.1716 -0.141335 -0.116586 -0.0963475 
-0.0797968 -0.0662622 -0.0551941 -0.046143 -0.0387413 
-0.0326885 -0.0277387 -0.0236909 -0.0203807 -0.0176738 
-0.23222 -0.190823 -0.15697 -0.129286 -0.106647 
-0.0881333 -0.0729937 -0.060613 -0.0504885 -0.042209 
-0.0354384 -0.0299016 -0.0253738 -0.0216711 -0.0186432 
-0.016167 -0.208341 -0.1712 -0.140828 -0.115991 
-0.09568 -0.0790703 -0.0654875 -0.05438 -0.0452966 
-0.0378686 -0.0317942 -0.0268267 -0.0227645 -0.0194426 
-0.016726 -0.0145045 -0.182454 -0.149929 -0.12333 
-0.101579 -0.0837918 -0.0692459 -0.0573507 -0.0476233 
-0.0396686 -0.0331634 -0.0278438 -0.0234935 -0.019936 
-0.0170269 -0.0146478 -0.0127024 -0.154811 -0.127213 
-0.104645 -0.0861891 -0.0710966 -0.0587546 -0.0486616 
-0.040408 -0.0336584 -0.0281389 -0.0236252 -0.0199341 
-0.0169156 -0.0144472 -0.0124286 -0.0107778 -0.125677 
-0.103273 -0.0849514 -0.0699689 -0.0577168 -0.0476974 
-0.0395039 -0.0328035 -0.0273242 -0.0228434 -0.0191791 
-0.0161826 -0.0137322 -0.0117283 -0.0100896 -0.00874953 
-0.0953321 -0.0783375 -0.0644399 -0.053075 -0.0437811 
-0.0361809 -0.0299657 -0.0248831 -0.0207268 -0.0173278 
-0.0145483 -0.0122753 -0.0104166 -0.00889652 -0.00765348 
-0.00663696 -0.0640694 -0.052648 -0.0433079 -0.0356699 
-0.0294238 -0.0243159 -0.0201389 -0.0167231 -0.0139297 
-0.0116454 -0.00977743 -0.00824983 -0.00700061 -0.00597904 
-0.00514364 -0.00446047 -0.0321897 -0.0264513 -0.0217587 
-0.0179212 -0.0147831 -0.0122168 -0.0101182 -0.008402 
-0.00699857 -0.0058509 -0.00491237 -0.00414487 -0.00351724 
-0.00300399 -0.00258426 -0.00224103 0.0227535 0.0224243 
0.0218791 0.0211232 0.0201639 0.0190104 0.0176738 
0.016167 0.0145045 0.0127024 0.0107778 0.00874953 
0.00663696 0.00446047 0.00224103 0.0262385 0.0258588 
0.0252301 0.0243585 0.0232522 0.021922 0.0203807 
0.0186432 0.016726 0.0146478 0.0124286 0.0100896 
0.00765348 0.00514364 0.00258426 0.0305 0.0300587 
0.0293279 0.0283146 0.0270287 0.0254825 0.0236909 
0.0216711 0.0194426 0.0170269 0.0144472 0.0117283 
0.00889652 0.00597904 0.00300399 0.0357112 0.0351944 
0.0343388 0.0331524 0.0316468 0.0298364 0.0277387 
0.0253738 0.0227645 0.019936 0.0169156 0.0137322 
0.0104166 0.00700061 0.00351724 0.0420836 0.0414747 
0.0404664 0.0390683 0.037294 0.0351605 0.0326885 
0.0299016 0.0268267 0.0234935 0.0199341 0.0161826 
0.0122753 0.00824983 0.00414487 0.0498761 0.0491545 
0.0479594 0.0463025 0.0441996 0.0416711 0.0387413 
0.0354384 0.0317942 0.0278438 0.0236252 0.0191791 
0.0145483 0.00977743 0.00491237 0.0594052 0.0585456 
0.0571223 0.0551488 0.0526442 0.0496326 0.046143 
0.042209 0.0378686 0.0331634 0.0281389 0.0228434 
0.0173278 0.0116454 0.0058509 0.0710577 0.0700296 
0.068327 0.0659664 0.0629705 0.0593682 0.0551941 
0.0504885 0.0452966 0.0396686 0.0336584 0.0273242 
0.0207268 0.0139297 0.00699857 0.0853069 0.0840726 
0.0820286 0.0791947 0.075598 0.0712733 0.0662622 
0.060613 0.05438 0.0476233 0.040408 0.0328035 
0.0248831 0.0167231 0.008402 0.102732 0.101245 
0.0987836 0.0953708 0.0910395 0.0858315 0.0797968 
0.0729937 0.0654875 0.0573507 0.0486616 0.0395039 
0.0299657 0.0201389 0.0101182 0.124039 0.122244 
0.119272 0.115152 0.109922 0.103634 0.0963475 
0.0881333 0.0790703 0.0692459 0.0587546 0.0476974 
0.0361809 0.0243159 0.0122168 0.150095 0.147923 
0.144327 0.139341 0.133012 0.125403 0.116586 
0.106647 0.09568 0.0837918 0.0710966 0.0577168 
0.0437811 0.0294238 0.0147831 0.181957 0.179324 
0.174965 0.16892 0.161248 0.152024 0.141335 
0.129286 0.115991 0.101579 0.0861891 0.0699689 
0.053075 0.0356699 0.0179212 0.22092 0.217723 
0.21243 0.205091 0.195777 0.184577 0.1716 
0.15697 0.140828 0.12333 0.104645 0.0849514 
0.0644399 0.0433079 0.0217587 0.268565 0.264679 
0.258244 0.249322 0.237999 0.224384 0.208608 
0.190823 0.1712 0.149929 0.127213 0.103273 
0.0783375 0.052648 0.0264513 0.326828 0.322099 
0.314268 0.30341 0.289631 0.273062 0.253864 
0.23222 0.208341 0.182454 0.154811 0.125677 
0.0953321 0.0640694 0.0321897 -0.0321897 -0.0264513 
-0.0217587 -0.0179212 -0.0147831 -0.0122168 -0.0101182 
-0.008402 -0.00699857 -0.0058509 -0.00491237 -0.00414487 
-0.00351724 -0.00300399 -0.00258426 -0.00224103 -0.0640694 
-0.052648 -0.0433079 -0.0356699 -0.0294238 -0.0243159 
-0.0201389 -0.0167231 -0.0139297 -0.0116454 -0.00977743 
-0.00824983 -0.00700061 -0.00597904 -0.00514364 -0.00446047 
-0.0953321 -0.0783375 -0.0644399 -0.053075 -0.0437811 
-0.0361809 -0.0299657 -0.0248831 -0.0207268 -0.0173278 
-0.0145483 -0.0122753 -0.0104166 -0.00889652 -0.00765348 
-0.00663696 -0.125677 -0.103273 -0.0849514 -0.0699689 
-0.0577168 -0.0476974 -0.0395039 -0.0328035 -0.0273242 
-0.0228434 -0.0191791 -0.0161826 -0.0137322 -0.0117283 
-0.0100896 -0.00874953 -0.154811 -0.127213 -0.104645 
-0.0861891 -0.0710966 -0.0587546 -0.0486616 -0.040408 
-0.0336584 -0.0281389 -0.0236252 -0.0199341 -0.0169156 
-0.0144472 -0.0124286 -0.0107778 -0.182454 -0.149929 
-0.12333 -0.101579 -0.0837918 -0.0692459 -0.0573507 
-0.0476233 -0.0396686 -0.0331634 -0.0278438 -0.0234935 
-0.019936 -0.0170269 -0.0146478 -0.0127024 -0.208341 
-0.1712 -0.140828 -0.115991 -0.09568 -0.0790703 
-0.0654875 -0.05438 -0.0452966 -0.0378686 -0.0317942 
-0.0268267 -0.0227645 -0.0194426 -0.016726 -0.0145045 
-0.23222 -0.190823 -0.15697 -0.129286 -0.106647 
-0.0881333 -0.0729937 -0.060613 -0.0504885 -0.042209 
-0.0354384 -0.0299016 -0.0253738 -0.0216711 -0.0186432 
-0.016167 -0.253864 -0.208608 -0.1716 -0.141335 
-0.116586 -0.0963475 -0.0797968 -0.0662622 -0.0551941 
-0.046143 -0.0387413 -0.0326885 -0.0277387 -0.0236909 
-0.0203807 -0.0176738 -0.273062 -0.224384 -0.184577 
-0.152024 -0.125403 -0.103634 -0.0858315 -0.0712733 
-0.0593682 -0.0496326 -0.0416711 -0.0351605 -0.0298364 
-0.0254825 -0.021922 -0.0190104 -0.289631 -0.237999 
-0.195777 -0.161248 -0.133012 -0.109922 -0.0910395 
-0.075598 -0.0629705 -0.0526442 -0.0441996 -0.037294 
-0.0316468 -0.0270287 -0.0232522 -0.0201639 -0.30341 
-0.249322 -0.205091 -0.16892 -0.139341 -0.115152 
-0.0953708 -0.0791947 -0.0659664 -0.0551488 -0.0463025 
-0.0390683 -0.0331524 -0.0283146 -0.0243585 -0.0211232 
-0.314268 -0.258244 -0.21243 -0.174965 -0.144327 
-0.119272 -0.0987836 -0.0820286 -0.068327 -0.0571223 
-0.0479594 -0.0404664 -0.0343388 -0.0293279 -0.0252301 
-0.0218791 -0.322099 -0.264679 -0.217723 -0.179324 
-0.147923 -0.122244 -0.101245 -0.0840726 -0.0700296 
-0.0585456 -0.0491545 -0.0414747 -0.0351944 -0.0300587 
-0.0258588 -0.0224243 -0.326828 -0.268565 -0.22092 
-0.181957 -0.150095 -0.124039 -0.102732 -0.0853069 
-0.0710577 -0.0594052 -0.0498761 -0.0420836 -0.0357112 
-0.0305 -0.0262385 -0.0227535 
0.207555 0.202236 0.211219 0.239234 
0.286491 0.351879 0.434993 0.536381 0.657162 
0.798597 0.961778 1.14742 1.35565 1.58587 
1.8367 0.252148 0.245271 0.242981 0.254653 
0.28726 0.342007 0.417445 0.512489 0.62702 
0.761434 0.91613 1.09112 1.28576 1.49864 
1.72741 1.96886 0.29465 0.291114 0.292708 
0.309487 0.349862 0.415663 0.504962 0.615855 
0.747342 0.898815 1.06945 1.25777 1.4614 
1.67694 1.90003 2.1255 0.34145 0.341264 
0.347334 0.370364 0.420035 0.498509 0.603193 
0.731118 0.880075 1.04806 1.23255 1.4301 
1.63611 1.8449 2.04991 2.24414 0.389065 
0.392722 0.404418 0.43498 0.49505 0.587041 
0.707548 0.852206 1.01713 1.19832 1.39099 
1.58913 1.78552 1.97212 2.14058 2.28311 
0.435201 0.443333 0.462071 0.501724 0.573235 
0.679074 0.814864 0.974416 1.15153 1.33956 
1.5308 1.71637 1.88666 2.03217 2.14465 
2.21836 0.478788 0.492021 0.519106 0.569377 
0.653183 0.772551 0.921795 1.09238 1.27514 
1.4602 1.6368 1.79378 1.92067 2.00925 
2.05504 2.05832 0.520076 0.538901 0.57523 
0.637138 0.733455 0.864947 1.02404 1.19933 
1.37829 1.54788 1.69527 1.80909 1.88132 
1.90894 1.8948 1.84698 0.560917 0.585475 
0.631209 0.704721 0.812473 0.952994 1.11615 
1.28743 1.45122 1.59265 1.69922 1.76286 
1.7817 1.76054 1.70961 1.6417 0.605242 
0.634985 0.689113 0.772506 0.888597 1.03283 
1.19212 1.34923 1.48699 1.59123 1.6532 
1.67131 1.65135 1.6046 1.5444 1.48256 
0.659397 0.692706 0.752507 0.841724 0.960429 
1.1007 1.24681 1.38026 1.48481 1.5501 
1.57368 1.56102 1.52334 1.47376 1.4235 
1.37978 0.731125 0.765136 0.825882 0.914245 
1.02719 1.1541 1.27806 1.38155 1.45195 
1.48465 1.48335 1.45795 1.42061 1.38186 
1.34836 1.32276 0.825191 0.85632 0.911943 
0.991092 1.08863 1.19301 1.28847 1.3608 
1.40244 1.41393 1.40245 1.37823 1.35078 
1.32639 1.30776 1.295 0.936742 0.961851 
1.00692 1.06956 1.14402 1.22006 1.2854 
1.33054 1.3523 1.3539 1.34256 1.32599 
1.30992 1.29722 1.28846 1.28299 1.05059 
1.06761 1.09924 1.14217 1.19126 1.23919 
1.27821 1.30319 1.31354 1.31265 1.3056 
1.2969 1.28932 1.28385 1.28038 1.27839 
1.14942 1.15787 1.17606 1.20074 1.22806 
1.25366 1.2736 1.28575 1.29046 1.28992 
1.28685 1.28335 1.2805 1.27859 1.27746 
1.27686 1.21956 1.22179 1.22942 1.24042 
1.25265 1.26397 1.27269 1.27803 1.28025 
1.28035 1.27945 1.27837 1.2775 1.27693 
1.27661 1.27644 2.10592 1.27631 1.27633 
1.27651 1.27759 1.28319 1.30756 1.39258 
1.60917 1.96956 2.32406 2.50076 2.48659 
2.36045 2.18667 1.99931 1.828 1.27631 
1.27632 1.2764 1.27693 1.27986 1.29331 
1.34341 1.48579 1.7654 2.10746 2.33954 
2.38259 2.28607 2.1216 1.93122 1.73622 
1.56092 1.27631 1.27635 1.27662 1.27824 
1.28608 1.31673 1.41028 1.61669 1.91549 
2.17115 2.26618 2.20727 2.06087 1.87815 
1.68352 1.49026 1.31897 1.27633 1.27646 
1.27737 1.28211 1.30157 1.36409 1.51345 
1.75795 2.0074 2.13825 2.11768 1.99478 
1.82493 1.63882 1.4492 1.26478 1.10338 
1.27638 1.27686 1.27968 1.29217 1.33448 
1.44182 1.6339 1.85742 2.00389 2.01545 
1.91804 1.76421 1.58985 1.4106 1.23253 
1.06196 0.914385 1.27658 1.2781 1.28577 
1.31391 1.38992 1.53623 1.72446 1.86873 
1.90186 1.82835 1.69212 1.53119 1.36455 
1.1987 1.03644 0.882851 0.751405 1.27717 
1.28131 1.2987 1.35012 1.45713 1.6073 
1.73676 1.77997 1.72581 1.60709 1.46048 
1.3073 1.15543 1.00672 0.862645 0.72767 
0.613351 1.2786 1.28778 1.31921 1.39192 
1.50399 1.61073 1.65386 1.61287 1.50975 
1.37742 1.23798 1.1005 0.966826 0.836937 
0.712 0.596069 0.498917 1.28121 1.29712 
1.34034 1.41547 1.49451 1.52926 1.49462 
1.40352 1.28413 1.15793 1.03458 0.916053 
0.801605 0.690791 0.584869 0.487529 0.406898 
1.28437 1.30474 1.34655 1.39533 1.41507 
1.37985 1.29563 1.18608 1.07136 0.96104 
0.856948 0.757768 0.662038 0.569529 0.48166 
0.401715 0.336346 1.28562 1.30226 1.32288 
1.3237 1.28183 1.19838 1.09351 0.986536 
0.886755 0.79542 0.710385 0.629241 0.550675 
0.474822 0.403155 0.338505 0.286374 1.28148 
1.28298 1.26724 1.21633 1.12882 1.02235 
0.91703 0.823059 0.74124 0.66819 0.600167 
0.534661 0.470707 0.408666 0.349959 0.297149 
0.255333 1.27007 1.24816 1.19351 1.10284 
0.991107 0.880354 0.784665 0.706439 0.641372 
0.583869 0.529651 0.476316 0.423092 0.370456 
0.319957 0.274564 0.239775 1.25333 1.20756 
1.12344 1.01106 0.892129 0.786363 0.70226 
0.6376 0.585498 0.539346 0.49462 0.448934 
0.401606 0.353364 0.306382 0.264636 0.234244 
1.23638 1.17351 1.07424 0.955042 0.837297 
0.737637 0.661823 0.60563 0.561042 0.521027 
0.480994 0.438629 0.393456 0.346612 0.300869 
0.260729 0.232257 1.22432 1.15377 1.05118 
0.932954 0.818056 0.721925 0.649658 0.596411 
0.553929 0.515281 0.476097 0.4343 0.389618 
0.343299 0.297976 0.257649 0.227836 1.27631 
2.39048 2.68658 2.98983 3.29541 3.59826 
3.89334 4.17578 4.44106 4.68517 4.90457 
5.09622 5.25759 5.38648 5.48106 5.53975 
2.21896 2.47307 2.72612 2.97294 3.20856 
3.42854 3.6292 3.80785 3.96291 4.09395 
4.20165 4.28764 4.35436 4.40477 4.44196 
4.46869 2.34762 2.56045 2.75829 2.93606 
3.08973 3.21664 3.31571 3.38753 3.4343 
3.45963 3.46819 3.46535 3.45666 3.44742 
3.44228 3.44493 2.42064 2.57314 2.69663 
2.78791 2.8459 2.87185 2.86912 2.84285 
2.79928 2.74504 2.68653 2.62937 2.57823 
2.53671 2.5076 2.49297 2.39332 2.46706 
2.50303 2.50302 2.47163 2.4156 2.34275 
2.2609 2.17693 2.09627 2.02277 1.9588 
1.90567 1.86393 1.83379 1.81532 2.25105 
2.2444 2.20385 2.13755 2.05491 1.965 
1.8754 1.79157 1.71679 1.65256 1.59908 
1.55577 1.52164 1.49563 1.47678 1.46435 
2.02419 1.96151 1.88104 1.7933 1.70691 
1.62782 1.55923 1.50219 1.45625 1.42014 
1.3923 1.37117 1.35536 1.34375 1.33546 
1.32986 1.77687 1.69648 1.61604 1.5427 
1.48026 1.42981 1.39065 1.36115 1.33941 
1.32362 1.31227 1.30416 1.29839 1.29432 
1.29148 1.28956 1.56903 1.50083 1.44247 